cal_dec_tip4p
36280
    2DECAN   C1    1   9.812   1.047  14.611  0.4498  0.2453 -0.1847
    2DECAN   C2    2   9.816   0.970  14.745  0.0734  0.3945 -0.0864
    2DECAN   C3    3   9.796   1.053  14.873  0.0752 -0.2716  0.3489
    2DECAN   C4    4   9.794   0.978  15.007 -0.3788  0.0120  0.5044
    2DECAN   C5    5   9.686   0.873  15.040 -0.0936 -0.4496 -0.0188
    2DECAN   C6    6   9.540   0.917  15.021 -0.0231 -0.3647 -0.3673
    2DECAN   C7    7   9.508   1.000  15.147  0.0673  0.0381 -0.6067
    2DECAN   C8    8   9.387   1.095  15.137  0.0950  0.1272 -0.1386
    2DECAN   C9    9   9.257   1.022  15.101  0.1197 -0.0056  0.0445
    2DECAN  C10   10   9.155   1.124  15.047  0.0960 -0.0424  0.0190
    3DECAN   C1   11   5.964   2.194   4.601  0.5748 -0.0327 -0.1314
    3DECAN   C2   12   5.965   2.180   4.754  0.3943  0.5108 -0.0777
    3DECAN   C3   13   5.987   2.037   4.807 -0.3899  0.2397 -0.4789
    3DECAN   C4   14   5.879   1.937   4.760  0.0775 -0.2851 -0.4406
    3DECAN   C5   15   5.908   1.794   4.812  0.7552  0.1746  0.4803
    3DECAN   C6   16   5.834   1.676   4.748  0.5956  0.2951  0.4408
    3DECAN   C7   17   5.867   1.657   4.599 -0.3167 -0.0433  0.2705
    3DECAN   C8   18   6.000   1.582   4.580 -0.6260 -0.4934 -0.1229
    3DECAN   C9   19   6.048   1.570   4.434  0.0493  0.0590  0.0463
    3DECAN  C10   20   6.186   1.503   4.429  0.0537  0.0618  0.1342
    4DECAN   C1   21   1.554   9.945   6.980  0.5396 -0.2150 -0.0573
    4DECAN   C2   22   1.439   9.879   7.058 -0.0848  0.3313 -0.5015
    4DECAN   C3   23   1.380   9.762   6.977  0.0911 -0.2796  0.2385
    4DECAN   C4   24   1.467   9.636   6.970  0.4416 -0.0210 -0.0578
    4DECAN   C5   25   1.413   9.531   6.871  0.2230  0.3364 -0.3169
    4DECAN   C6   26   1.434   9.384   6.911  0.0613  0.2121 -0.6853
    4DECAN   C7   27   1.356   9.335   7.034  0.7888 -0.3719 -0.4474
    4DECAN   C8   28   1.352   9.184   7.062  0.3958 -0.3136 -0.1732
    4DECAN   C9   29   1.295   9.140   7.198  0.6749  0.1050  0.0829
    4DECAN  C10   30   1.269   8.989   7.213 -0.2132  0.3239  0.8913
    5DECAN   C1   31   4.015   3.845   6.913 -0.2763 -0.2588  0.9526
    5DECAN   C2   32   4.139   3.755   6.900  0.5375  0.8914  0.6598
    5DECAN   C3   33   4.102   3.616   6.956  0.0731  0.7094 -0.0849
    5DECAN   C4   34   4.206   3.504   6.939 -0.0519  0.6128 -0.2203
    5DECAN   C5   35   4.221   3.454   6.794 -0.0474  0.0383 -0.0239
    5DECAN   C6   36   4.285   3.549   6.690  0.0679 -0.0515 -0.0357
    5DECAN   C7   37   4.283   3.510   6.541  0.7620  0.0402 -0.0702
    5DECAN   C8   38   4.370   3.385   6.516 -0.5467 -0.8503 -0.3062
    5DECAN   C9   39   4.392   3.353   6.367 -0.0718  0.0716 -0.4418
    5DECAN  C10   40   4.290   3.244   6.331 -0.2311  0.0852 -0.0358
    6DECAN   C1   41   5.066   8.184   3.728  0.0863 -0.3453  0.7053
    6DECAN   C2   42   5.163   8.110   3.822  0.6717 -0.3929  0.0676
    6DECAN   C3   43   5.271   8.212   3.863  0.2551  0.2258 -0.3648
    6DECAN   C4   44   5.389   8.151   3.940  0.4209  0.2869 -0.5682
    6DECAN   C5   45   5.450   8.252   4.040 -0.1509  0.2035 -0.1327
    6DECAN   C6   46   5.541   8.347   3.960 -0.4036  0.8212  0.3033
    6DECAN   C7   47   5.658   8.277   3.889 -0.3771  0.2311  0.9138
    6DECAN   C8   48   5.761   8.216   3.985  0.2494 -0.2090 -0.0190
    6DECAN   C9   49   5.840   8.323   4.063 -0.1384  0.1345 -0.0966
    6DECAN  C10   50   5.945   8.259   4.155 -0.1576  0.9344  0.4906
    7DECAN   C1   51   8.946   0.415   9.202  0.2969  0.1809  0.4455
    7DECAN   C2   52   9.028   0.451   9.077 -0.5414  0.5929  0.0054
    7DECAN   C3   53   9.170   0.506   9.098 -0.0331 -0.5405 -0.3848
    7DECAN   C4   54   9.185   0.620   9.201  0.1915 -0.5925 -0.3592
    7DECAN   C5   55   9.331   0.636   9.248  0.1190 -0.4989 -0.1674
    7DECAN   C6   56   9.340   0.716   9.379 -0.1090  0.3335 -0.6501
    7DECAN   C7   57   9.475   0.703   9.451 -0.4304  0.0198 -0.0997
    7DECAN   C8   58   9.468   0.790   9.578 -0.2742  0.2194 -0.2286
    7DECAN   C9   59   9.431   0.934   9.539 -0.1311  0.4313  0.4014
    7DECAN  C10   60   9.404   1.014   9.667  0.0398  0.0634  0.6660
    8DECAN   C1   61   5.628   2.057   7.130  0.0127  0.5348  0.5134
    8DECAN   C2   62   5.583   2.137   7.006 -0.4515 -0.3180  0.1275
    8DECAN   C3   63   5.636   2.081   6.872 -0.1362 -0.2687  0.2307
    8DECAN   C4   64   5.587   2.158   6.748 -0.4745 -0.4913  0.2264
    8DECAN   C5   65   5.440   2.200   6.766 -0.2413  0.1126  0.7164
    8DECAN   C6   66   5.386   2.301   6.663  0.0751 -0.0034  0.4347
    8DECAN   C7   67   5.241   2.346   6.689 -0.1723 -0.4301 -0.1868
    8DECAN   C8   68   5.161   2.217   6.664 -0.3634 -0.3669  0.0983
    8DECAN   C9   69   5.014   2.258   6.685 -0.1220  0.7441 -0.3203
    8DECAN  C10   70   4.914   2.141   6.680  0.2685  0.4319 -1.0509
    9DECAN   C1   71   3.263   2.828   5.101  0.3284 -0.2740 -0.0624
    9DECAN   C2   72   3.198   2.719   5.188  0.1958 -0.3663 -0.2761
    9DECAN   C3   73   3.085   2.632   5.129 -0.3545 -0.1021  0.3855
    9DECAN   C4   74   3.136   2.542   5.015 -0.2715 -0.1276  0.4425
    9DECAN   C5   75   3.219   2.602   4.901  0.3068 -0.4539  0.6908
    9DECAN   C6   76   3.308   2.504   4.823  0.1824 -0.2115  0.2411
    9DECAN   C7   77   3.356   2.558   4.687 -0.4040  0.0429  0.1336
    9DECAN   C8   78   3.251   2.590   4.579 -0.1994 -0.3512 -0.1884
    9DECAN   C9   79   3.300   2.655   4.449  0.4042  0.0930  0.2570
    9DECAN  C10   80   3.390   2.566   4.361  0.3328  0.2585  0.0150
   10DECAN   C1   81   3.926  10.357   4.018  0.1964 -0.2781  0.0672
   10DECAN   C2   82   3.986  10.463   4.113 -0.0865 -0.2469  0.2126
   10DECAN   C3   83   4.021  10.400   4.249  0.6596  0.0365  0.1569
   10DECAN   C4   84   4.039  10.508   4.357 -0.2830  0.2780  0.0795
   10DECAN   C5   85   4.031  10.448   4.499 -0.0336  0.0639  0.0042
   10DECAN   C6   86   4.120  10.334   4.550 -1.0402 -0.2071  1.2010
   10DECAN   C7   87   4.103  10.207   4.464  0.4785  0.2171  0.2367
   10DECAN   C8   88   4.152  10.070   4.514 -0.0951 -0.0883 -0.0346
   10DECAN   C9   89   4.301  10.037   4.494  0.0342  0.3582  0.1735
   10DECAN  C10   90   4.328   9.907   4.573  0.4173  0.3186 -0.0239
   11DECAN   C1   91   7.996   1.898  13.321 -0.0140  0.3025  0.7875
   11DECAN   C2   92   8.006   1.757  13.258 -0.2863  0.5506  0.1840
   11DECAN   C3   93   7.943   1.753  13.118  0.0662  0.1108  0.0383
   11DECAN   C4   94   7.790   1.769  13.125  0.0726  0.0592  0.2807
   11DECAN   C5   95   7.720   1.772  12.988 -0.0281  0.0860  0.3329
   11DECAN   C6   96   7.568   1.790  13.003 -0.0542  0.3166 -0.1946
   11DECAN   C7   97   7.514   1.913  13.078  0.1786  0.0380  0.4355
   11DECAN   C8   98   7.360   1.916  13.068  0.1894 -0.0885  0.2339
   11DECAN   C9   99   7.286   1.822  13.165  0.2970 -0.4512 -0.0320
   11DECAN  C10  100   7.138   1.864  13.176  0.6036  0.6428  0.1172
   12DECAN   C1  101  10.407   0.103   9.812  0.1633  0.1388 -0.1066
   12DECAN   C2  102  10.485  11.235   9.884 -0.4578  0.4365  1.0566
   12DECAN   C3  103  10.436  11.097   9.836  0.4476  0.6393 -0.5505
   12DECAN   C4  104  10.490  10.979   9.918 -0.1330  0.3144 -0.6250
   12DECAN   C5  105  10.414  10.846   9.900  0.1259  0.0384  0.2176
   12DECAN   C6  106  10.435  10.780   9.762 -0.3502  0.1340  0.0966
   12DECAN   C7  107  10.323  10.678   9.733 -0.4473  0.1470  0.4237
   12DECAN   C8  108  10.328  10.625   9.589 -0.0838 -0.5867  0.7008
   12DECAN   C9  109  10.229  10.510   9.569  0.4096 -1.0068  0.6484
   12DECAN  C10  110  10.228  10.457   9.424  0.4223  0.4844  0.0839
   13DECAN   C1  111   4.730   0.210  12.179 -0.3148  0.6027 -0.1275
   13DECAN   C2  112   4.618   0.310  12.212 -0.2279  0.6478  0.0290
   13DECAN   C3  113   4.478   0.251  12.189  0.1618 -0.4787  0.4923
   13DECAN   C4  114   4.366   0.342  12.242  0.6508  0.1033  0.5378
   13DECAN   C5  115   4.371   0.478  12.171  0.2737  0.4659  1.1979
   13DECAN   C6  116   4.505   0.553  12.168  0.3547  0.2925 -0.4246
   13DECAN   C7  117   4.493   0.683  12.086 -0.4591  0.1351 -0.5557
   13DECAN   C8  118   4.629   0.748  12.055  0.0112 -0.5284  0.0979
   13DECAN   C9  119   4.626   0.880  11.975 -0.2284 -0.5553  0.0605
   13DECAN  C10  120   4.763   0.905  11.909 -0.4530 -1.0160 -0.5895
   14DECAN   C1  121   6.040   0.775  12.361 -0.0055 -0.0373  0.5428
   14DECAN   C2  122   5.905   0.840  12.399  0.1860  0.1700  0.8763
   14DECAN   C3  123   5.782   0.748  12.396 -0.0389  0.5014 -0.5970
   14DECAN   C4  124   5.655   0.813  12.453 -0.0047  0.1928 -0.1647
   14DECAN   C5  125   5.526   0.729  12.446 -0.0902  0.3015  0.0890
   14DECAN   C6  126   5.431   0.785  12.553 -0.0608  0.1688  0.1854
   14DECAN   C7  127   5.289   0.726  12.564  0.2032 -0.3868  0.6807
   14DECAN   C8  128   5.197   0.805  12.660 -0.1581 -0.0043  0.0247
   14DECAN   C9  129   5.227   0.794  12.810 -0.1100  0.1756  0.0293
   14DECAN  C10  130   5.376   0.778  12.848  0.0464  0.3197 -0.5074
   15DECAN   C1  131   8.441   5.476   6.865  0.0486  0.3783 -0.0438
   15DECAN   C2  132   8.556   5.491   6.966  0.1263 -0.2519 -0.0332
   15DECAN   C3  133   8.673   5.394   6.941  0.3371  0.0350 -0.1676
   15DECAN   C4  134   8.793   5.412   7.035 -0.1339  0.1118  0.4265
   15DECAN   C5  135   8.901   5.306   7.007 -0.3449 -0.0826  0.3437
   15DECAN   C6  136   9.019   5.327   7.104 -0.0505  0.0122 -0.0364
   15DECAN   C7  137   9.118   5.214   7.070 -0.3089 -0.0840 -0.4844
   15DECAN   C8  138   9.055   5.074   7.084 -0.3054 -0.0408 -0.0142
   15DECAN   C9  139   9.164   4.969   7.057  0.0352  0.2851  0.0874
   15DECAN  C10  140   9.109   4.825   7.045  0.1330  0.2388  0.1893
   16DECAN   C1  141   3.627   0.274  10.508 -0.7530 -0.1070  0.4918
   16DECAN   C2  142   3.490   0.288  10.440 -0.3968 -0.0749 -0.2272
   16DECAN   C3  143   3.453   0.434  10.406  0.1451  0.2199  0.4433
   16DECAN   C4  144   3.347   0.462  10.299  0.1078 -0.2818  0.3464
   16DECAN   C5  145   3.322   0.612  10.276 -0.3910 -0.4062  0.0499
   16DECAN   C6  146   3.190   0.635  10.200 -0.0409  0.4904 -0.3024
   16DECAN   C7  147   3.169   0.776  10.141  0.0960  0.6717  0.0740
   16DECAN   C8  148   3.043   0.781  10.052 -0.0890 -0.3626  0.2574
   16DECAN   C9  149   3.054   0.704   9.919 -0.1745  0.3371 -0.1610
   16DECAN  C10  150   2.924   0.733   9.841 -0.0547 -0.2659 -0.5907
   17DECAN   C1  151   9.729   3.924   9.130 -0.3215  0.3998 -0.0560
   17DECAN   C2  152   9.750   3.943   8.978  0.0206 -0.3914 -0.1120
   17DECAN   C3  153   9.739   3.820   8.887 -0.3344 -0.2871 -0.2108
   17DECAN   C4  154   9.597   3.761   8.876 -0.5678  0.3762 -0.8527
   17DECAN   C5  155   9.592   3.656   8.763  0.3469 -0.2411 -0.3396
   17DECAN   C6  156   9.454   3.597   8.728  0.2250  0.0718 -0.3954
   17DECAN   C7  157   9.456   3.506   8.603  0.6466 -0.6927  0.1578
   17DECAN   C8  158   9.318   3.452   8.564  0.5001 -0.4675  0.3581
   17DECAN   C9  159   9.310   3.371   8.433  0.2751 -0.1521  0.1752
   17DECAN  C10  160   9.172   3.306   8.412  0.3882 -0.3514  0.0426
   18DECAN   C1  161   9.086   7.625  10.756 -0.4975  0.4854  0.0335
   18DECAN   C2  162   9.109   7.656  10.905 -0.2198  0.4334  0.0006
   18DECAN   C3  163   9.255   7.678  10.947 -0.0980 -0.4299  0.0395
   18DECAN   C4  164   9.270   7.646  11.097 -0.4554 -0.3959  0.0819
   18DECAN   C5  165   9.417   7.645  11.143 -0.4160 -0.0345 -0.0291
   18DECAN   C6  166   9.486   7.780  11.119  0.3930 -0.4365 -0.0159
   18DECAN   C7  167   9.634   7.787  11.163  0.4032  0.0902 -0.1193
   18DECAN   C8  168   9.677   7.934  11.177  0.3702  0.1128 -0.2570
   18DECAN   C9  169   9.604   8.005  11.293  0.3627 -0.1376 -0.1094
   18DECAN  C10  170   9.626   8.156  11.313  0.2174 -0.0931 -0.2890
   19DECAN   C1  171   1.604   2.684  11.904 -0.0955 -0.0247  0.2119
   19DECAN   C2  172   1.650   2.782  11.795 -0.2652 -0.2421 -0.0576
   19DECAN   C3  173   1.540   2.886  11.766 -0.1592 -0.0970  0.0616
   19DECAN   C4  174   1.417   2.841  11.685  0.0975 -0.4568 -0.1307
   19DECAN   C5  175   1.354   2.956  11.605  0.2496  0.0691  0.4960
   19DECAN   C6  176   1.216   2.932  11.541  0.9204 -0.6249 -0.7285
   19DECAN   C7  177   1.158   3.057  11.472  0.2071 -0.1894  0.6137
   19DECAN   C8  178   1.022   3.013  11.416  0.0835 -0.0311  0.7873
   19DECAN   C9  179   0.931   3.127  11.365  0.1326 -0.3860 -0.1217
   19DECAN  C10  180   0.819   3.069  11.277 -0.1328  0.3517 -0.2729
   20DECAN   C1  181   4.203   7.644  12.003  0.3005 -0.4335 -0.1105
   20DECAN   C2  182   4.069   7.627  11.929  0.0607  0.2508  0.1579
   20DECAN   C3  183   4.012   7.761  11.880  0.1225  0.2013 -0.0539
   20DECAN   C4  184   3.880   7.742  11.803 -0.1226  0.4359  0.3062
   20DECAN   C5  185   3.793   7.622  11.846  0.3434  0.1500  0.4612
   20DECAN   C6  186   3.649   7.641  11.794  0.4336  0.0061  0.1553
   20DECAN   C7  187   3.558   7.518  11.810  0.3922  0.0253  0.0646
   20DECAN   C8  188   3.623   7.379  11.796  0.0859 -0.0890 -0.2289
   20DECAN   C9  189   3.520   7.267  11.770  0.0153 -0.1837  0.4445
   20DECAN  C10  190   3.581   7.128  11.741  0.1296  0.0060 -0.2355
   21DECAN   C1  191   4.672   3.767   4.849  0.2663  0.0082 -0.2688
   21DECAN   C2  192   4.648   3.619   4.817 -0.3722  0.1735 -0.5751
   21DECAN   C3  193   4.718   3.564   4.691 -0.3437  0.0754 -0.5165
   21DECAN   C4  194   4.677   3.417   4.669  0.2859 -0.1857 -0.0124
   21DECAN   C5  195   4.705   3.327   4.790 -0.6516  0.1765  0.4851
   21DECAN   C6  196   4.851   3.277   4.793 -0.5117  0.4736 -0.7289
   21DECAN   C7  197   4.885   3.186   4.674  0.6089  0.2668 -0.2614
   21DECAN   C8  198   5.028   3.131   4.693  0.4124 -0.1164  0.1134
   21DECAN   C9  199   5.132   3.243   4.708  0.5867 -0.2827  0.1577
   21DECAN  C10  200   5.115   3.335   4.830 -0.2585 -0.4379  0.1646
   22DECAN   C1  201   7.223   7.653  10.746 -1.0398 -0.1494 -0.2069
   22DECAN   C2  202   7.292   7.708  10.620 -0.4995 -0.2685  0.0341
   22DECAN   C3  203   7.208   7.826  10.569 -0.5882 -0.4972 -0.3530
   22DECAN   C4  204   7.272   7.881  10.440  0.3035 -0.1385  0.2269
   22DECAN   C5  205   7.178   7.990  10.385  0.5884  0.2507  0.5081
   22DECAN   C6  206   7.216   8.046  10.246 -0.4212 -0.4507 -0.0699
   22DECAN   C7  207   7.128   8.167  10.211 -0.1200 -0.2737 -0.2226
   22DECAN   C8  208   7.152   8.285  10.307 -0.1406 -0.1922 -0.3188
   22DECAN   C9  209   7.062   8.406  10.273 -0.1918 -0.1591 -0.0650
   22DECAN  C10  210   7.149   8.532  10.289 -0.0255 -0.2544 -0.2086
   23DECAN   C1  211   8.387   4.323  11.555  0.0721 -0.6233 -0.0613
   23DECAN   C2  212   8.370   4.190  11.631  0.3658 -0.7765 -0.2617
   23DECAN   C3  213   8.404   4.083  11.526  0.2974 -0.4370 -0.6300
   23DECAN   C4  214   8.289   4.028  11.439 -0.3629 -0.2698  0.1339
   23DECAN   C5  215   8.230   4.136  11.347  0.2226  0.2968  0.4149
   23DECAN   C6  216   8.159   4.078  11.224  0.7499  0.5615 -0.0180
   23DECAN   C7  217   8.075   4.184  11.150 -0.0843  0.1681  0.3472
   23DECAN   C8  218   7.963   4.127  11.062 -0.5259  0.3715  0.7711
   23DECAN   C9  219   7.902   4.227  10.962  0.6193 -0.1688 -0.5110
   23DECAN  C10  220   7.801   4.182  10.854  0.0654  0.2769 -0.1859
   24DECAN   C1  221   8.328   7.102   8.584  0.2773 -0.0971  0.0519
   24DECAN   C2  222   8.277   6.972   8.648 -0.7945  0.0922 -0.4006
   24DECAN   C3  223   8.149   6.990   8.731 -0.4248 -0.5881  0.3262
   24DECAN   C4  224   8.033   7.028   8.637 -0.2335 -0.1039  0.2852
   24DECAN   C5  225   8.076   7.133   8.533 -0.0123 -0.8713 -0.4039
   24DECAN   C6  226   7.962   7.235   8.517  0.4651 -0.2264  0.2536
   24DECAN   C7  227   8.007   7.363   8.445 -0.3335 -0.0147  0.1245
   24DECAN   C8  228   7.892   7.466   8.444 -0.6149 -0.3272 -0.0821
   24DECAN   C9  229   7.945   7.594   8.376  0.0679 -0.0781  0.8954
   24DECAN  C10  230   7.946   7.580   8.223 -0.4376 -0.1852  0.8984
   25DECAN   C1  231  10.665   9.089   7.467  0.2702 -0.1315  0.1833
   25DECAN   C2  232  10.634   9.039   7.610 -0.5000 -0.4324 -0.0834
   25DECAN   C3  233  10.623   8.886   7.624 -0.2313 -0.4174  0.2924
   25DECAN   C4  234  10.587   8.836   7.765 -0.5200  0.1842  0.4344
   25DECAN   C5  235  10.589   8.683   7.786  0.4941  0.1247 -0.0409
   25DECAN   C6  236  10.502   8.598   7.692  0.5957  0.0948 -0.1073
   25DECAN   C7  237  10.518   8.445   7.708  0.3572  0.0364 -0.4319
   25DECAN   C8  238  10.432   8.365   7.609 -0.6018 -0.1606  0.5411
   25DECAN   C9  239  10.423   8.216   7.648 -0.0332 -0.3188  0.0759
   25DECAN  C10  240  10.305   8.143   7.580 -0.5882  0.3440  0.3130
   26DECAN   C1  241   1.620   4.740   7.897 -0.2750  0.0390 -0.1641
   26DECAN   C2  242   1.588   4.885   7.936  0.4133  0.1910 -0.1592
   26DECAN   C3  243   1.475   4.909   8.038  0.3265  0.2906 -0.2793
   26DECAN   C4  244   1.490   4.847   8.178 -0.6385  0.1402 -0.2320
   26DECAN   C5  245   1.472   4.695   8.185  0.0459  0.0542 -0.2201
   26DECAN   C6  246   1.484   4.643   8.330  0.0093 -0.0645 -0.2590
   26DECAN   C7  247   1.365   4.665   8.426  0.6026  0.1815  0.4217
   26DECAN   C8  248   1.390   4.656   8.578 -0.0437 -0.7026  0.4755
   26DECAN   C9  249   1.263   4.653   8.665 -0.0928  0.0576  0.4355
   26DECAN  C10  250   1.187   4.787   8.669  0.1705  0.2386 -0.5416
   27DECAN   C1  251   4.068   6.219  13.988 -0.3293 -0.0556  0.0107
   27DECAN   C2  252   4.050   6.233  14.141 -0.0050  0.7152 -0.0148
   27DECAN   C3  253   4.019   6.377  14.185 -0.5818  0.5795  0.0363
   27DECAN   C4  254   3.985   6.399  14.334  0.0936  0.2791  0.2365
   27DECAN   C5  255   4.099   6.379  14.437  0.0852 -0.5458  0.0955
   27DECAN   C6  256   4.214   6.477  14.408 -0.1475 -0.2048  0.3098
   27DECAN   C7  257   4.340   6.468  14.496  0.1969  0.0049 -0.1572
   27DECAN   C8  258   4.461   6.542  14.435  0.2592 -0.5773 -0.7469
   27DECAN   C9  259   4.593   6.557  14.512 -0.1106  1.2030 -0.3946
   27DECAN  C10  260   4.609   6.647  14.635 -0.1058  0.3838  0.2157
   28DECAN   C1  261   2.649   2.495   5.552  0.1671  0.2314  0.3924
   28DECAN   C2  262   2.710   2.407   5.663 -0.4193  0.0017  0.5390
   28DECAN   C3  263   2.641   2.269   5.656 -0.7961  0.2206 -0.1204
   28DECAN   C4  264   2.689   2.171   5.764 -0.3746  0.3511 -0.1872
   28DECAN   C5  265   2.622   2.035   5.739 -0.2010  0.2278  0.0141
   28DECAN   C6  266   2.678   1.921   5.826 -0.3007  0.2394  0.0932
   28DECAN   C7  267   2.653   1.934   5.978  0.2842  0.6776  0.1575
   28DECAN   C8  268   2.508   1.952   6.027  0.0347 -0.1831 -0.2497
   28DECAN   C9  269   2.418   1.834   5.984  0.0089 -0.2781  0.0637
   28DECAN  C10  270   2.474   1.692   6.002  0.5726 -0.0854 -0.1380
   29DECAN   C1  271   8.071   6.770   4.369 -0.1393 -0.2408 -0.1051
   29DECAN   C2  272   8.024   6.915   4.389  0.2119 -0.1600  0.1367
   29DECAN   C3  273   8.119   6.991   4.483  0.5690  0.0682 -0.4085
   29DECAN   C4  274   8.143   7.135   4.434  0.7036  0.1023 -0.2428
   29DECAN   C5  275   8.239   7.219   4.521  0.0309  0.4107  0.2086
   29DECAN   C6  276   8.238   7.371   4.496  0.7107  0.4898  0.6392
   29DECAN   C7  277   8.130   7.451   4.573  0.2902  0.0488  0.5142
   29DECAN   C8  278   7.996   7.440   4.498  0.3701  0.0247  0.3725
   29DECAN   C9  279   7.858   7.475   4.558  0.0861 -0.2856 -0.0950
   29DECAN  C10  280   7.855   7.621   4.608 -0.1049 -0.4801  0.4653
   30DECAN   C1  281   6.202   7.863  15.061  0.3103  0.4495  0.1869
   30DECAN   C2  282   6.353   7.881  15.085  0.5351 -0.2644 -0.6664
   30DECAN   C3  283   6.393   8.029  15.079 -0.0849 -0.0380  0.4832
   30DECAN   C4  284   6.542   8.070  15.078 -0.0272 -0.2485  0.0215
   30DECAN   C5  285   6.583   8.217  15.052 -0.1342 -0.2014  0.1144
   30DECAN   C6  286   6.727   8.266  15.074 -0.1998  0.1037 -0.1328
   30DECAN   C7  287   6.766   8.409  15.033  0.1732 -0.0525 -0.3309
   30DECAN   C8  288   6.755   8.436  14.882 -0.2990  0.2312 -0.2507
   30DECAN   C9  289   6.842   8.335  14.805 -0.6355 -0.3489  0.1222
   30DECAN  C10  290   6.816   8.320  14.654 -0.2358  0.1406  0.0002
   31DECAN   C1  291   8.587   6.622   9.374  0.3764  0.0903  0.1435
   31DECAN   C2  292   8.461   6.591   9.458 -0.1206  0.7246 -0.3624
   31DECAN   C3  293   8.479   6.654   9.598  0.5860 -0.2681  0.0058
   31DECAN   C4  294   8.359   6.636   9.692  0.2455  0.1670 -0.3386
   31DECAN   C5  295   8.374   6.670   9.842 -0.1071 -0.1652 -0.2259
   31DECAN   C6  296   8.253   6.629   9.927 -0.0867  0.1781 -0.0314
   31DECAN   C7  297   8.121   6.669   9.859  0.1447  0.3972 -0.3497
   31DECAN   C8  298   7.998   6.612   9.931  0.4093 -0.2002 -0.3679
   31DECAN   C9  299   7.984   6.458   9.935 -0.2496 -0.1394 -0.0895
   31DECAN  C10  300   8.117   6.385   9.961 -0.0847  0.3910  0.5755
   32DECAN   C1  301   6.742   2.096   7.252 -0.2249 -0.4424  0.2161
   32DECAN   C2  302   6.612   2.110   7.171 -0.1970 -0.1253  0.2246
   32DECAN   C3  303   6.639   2.050   7.032 -1.0026 -0.4272  0.1937
   32DECAN   C4  304   6.687   1.904   7.039 -0.5653 -0.2766  0.3579
   32DECAN   C5  305   6.664   1.821   6.912  0.1658  0.2885 -0.1510
   32DECAN   C6  306   6.743   1.688   6.916 -0.4259 -0.0618 -0.0434
   32DECAN   C7  307   6.756   1.590   6.798  0.3773  0.1417 -0.1292
   32DECAN   C8  308   6.862   1.480   6.817  0.2980  0.1473  0.3687
   32DECAN   C9  309   6.824   1.399   6.942 -0.4133  0.0296  0.0819
   32DECAN  C10  310   6.879   1.464   7.070 -0.2875  0.2735 -0.0955
   33DECAN   C1  311   8.105   1.788   5.107 -0.0021 -0.0852  0.3491
   33DECAN   C2  312   8.099   1.884   5.227 -0.3043 -0.0398  0.2976
   33DECAN   C3  313   8.237   1.948   5.247 -0.3309 -0.0148  0.4020
   33DECAN   C4  314   8.351   1.848   5.274 -0.2829  0.0924  0.6020
   33DECAN   C5  315   8.486   1.919   5.295 -0.2249  0.0030  0.5369
   33DECAN   C6  316   8.602   1.828   5.338 -0.1512 -0.1673 -0.0228
   33DECAN   C7  317   8.717   1.910   5.398  0.0288 -0.3653 -0.0927
   33DECAN   C8  318   8.666   1.984   5.524  0.0235 -0.2880 -0.1401
   33DECAN   C9  319   8.552   2.086   5.504  0.2346 -0.0812 -0.2813
   33DECAN  C10  320   8.495   2.146   5.633 -0.0991 -0.0990 -0.4202
   34DECAN   C1  321   8.974   9.221  10.069 -0.1039 -0.0091 -0.0559
   34DECAN   C2  322   8.897   9.329  10.148 -0.3477 -0.2721  0.0711
   34DECAN   C3  323   8.785   9.384  10.058  0.3110 -0.0247 -0.6184
   34DECAN   C4  324   8.680   9.460  10.142  0.1635 -0.0781 -0.7530
   34DECAN   C5  325   8.542   9.491  10.082 -0.4255 -0.2693  0.4680
   34DECAN   C6  326   8.458   9.362  10.085 -0.3762 -0.3138  0.0704
   34DECAN   C7  327   8.328   9.357  10.003 -0.3820  0.2508  0.0383
   34DECAN   C8  328   8.252   9.225  10.026  0.4993 -0.3631 -0.5077
   34DECAN   C9  329   8.119   9.217   9.948  0.2197 -0.3103 -0.0455
   34DECAN  C10  330   8.083   9.069   9.925  0.5846 -0.4353  0.1817
   35DECAN   C1  331   6.679   0.667   9.191 -0.3961  0.4358  0.3535
   35DECAN   C2  332   6.764   0.795   9.205  0.2556  0.1688 -0.9426
   35DECAN   C3  333   6.917   0.789   9.217  0.1959  0.3614  0.0104
   35DECAN   C4  334   6.986   0.926   9.239 -0.3732  0.6647 -0.0803
   35DECAN   C5  335   7.137   0.938   9.212 -0.1367 -0.3790  0.6948
   35DECAN   C6  336   7.194   1.078   9.239  0.2569 -0.4135  0.0737
   35DECAN   C7  337   7.345   1.107   9.229  0.1654  0.0077 -0.1144
   35DECAN   C8  338   7.381   1.251   9.271  0.5323 -0.3070  0.6706
   35DECAN   C9  339   7.312   1.288   9.403  0.1197 -0.2380  0.4392
   35DECAN  C10  340   7.370   1.205   9.519  0.4764 -0.3707  0.1661
   36DECAN   C1  341   7.262   4.145   9.642 -0.5158  0.2143  0.0138
   36DECAN   C2  342   7.217   4.001   9.612 -0.2029  0.0395  0.3721
   36DECAN   C3  343   7.146   3.940   9.734 -0.6423  0.0263  0.1123
   36DECAN   C4  344   7.166   3.787   9.729  0.4319  0.1436  0.6148
   36DECAN   C5  345   7.107   3.718   9.853 -0.2182  0.2589  0.3737
   36DECAN   C6  346   7.105   3.564   9.854  0.2583  0.2431 -0.2079
   36DECAN   C7  347   7.054   3.504   9.987  0.5773 -0.3531 -0.3517
   36DECAN   C8  348   6.906   3.526  10.022  0.7870 -0.1806  0.4403
   36DECAN   C9  349   6.880   3.429  10.139 -0.0627  0.1543  0.5315
   36DECAN  C10  350   6.890   3.280  10.104 -0.2683  0.2074  0.2390
   37DECAN   C1  351   8.002   4.398   7.430  0.7177  0.4143  0.3790
   37DECAN   C2  352   8.115   4.502   7.420  0.6829  0.4157 -0.0351
   37DECAN   C3  353   8.148   4.528   7.272  0.2066 -0.0723 -0.2299
   37DECAN   C4  354   8.189   4.395   7.206  0.3408  0.0658 -0.4277
   37DECAN   C5  355   8.072   4.296   7.187  0.0968  0.1818  0.4538
   37DECAN   C6  356   8.070   4.218   7.055  0.2594 -0.0454  0.5873
   37DECAN   C7  357   7.947   4.126   7.042 -0.0163  0.4234 -0.1887
   37DECAN   C8  358   7.936   4.065   6.901  0.1055 -0.2002  0.0692
   37DECAN   C9  359   7.806   3.996   6.855  0.1600 -0.1548 -0.1536
   37DECAN  C10  360   7.686   4.091   6.834  0.3809  0.2732  0.4920
   38DECAN   C1  361   7.264   2.649   4.341 -0.7699 -0.4986  0.1302
   38DECAN   C2  362   7.339   2.574   4.229  0.0347  0.4713  0.0108
   38DECAN   C3  363   7.248   2.493   4.136 -0.4515  0.8683  0.1379
   38DECAN   C4  364   7.128   2.417   4.196 -0.0011 -0.1443 -0.2269
   38DECAN   C5  365   7.178   2.293   4.273  0.3549  0.3080  0.2699
   38DECAN   C6  366   7.246   2.307   4.410 -0.4551  0.0919  0.7029
   38DECAN   C7  367   7.301   2.176   4.468  0.7794  0.4324  0.3462
   38DECAN   C8  368   7.334   2.185   4.618  0.0464 -0.2525  0.5577
   38DECAN   C9  369   7.471   2.252   4.641 -0.0618  0.2455 -0.2362
   38DECAN  C10  370   7.513   2.271   4.788 -0.2648  0.1641 -0.1679
   39DECAN   C1  371  10.977   0.597  10.931  0.0119  0.4281  0.5372
   39DECAN   C2  372  10.957   0.591  10.779  0.3864  0.4339  0.4844
   39DECAN   C3  373  10.974   0.448  10.723 -0.3016  0.3753  0.4155
   39DECAN   C4  374  10.906   0.420  10.587  0.0565 -0.0428  0.3211
   39DECAN   C5  375  10.934   0.274  10.549  0.5001  0.0492  0.2870
   39DECAN   C6  376  10.873   0.174  10.649 -0.2836  0.0070 -0.2249
   39DECAN   C7  377  10.884   0.030  10.596 -0.0646 -0.3644  0.8205
   39DECAN   C8  378  10.776  11.231  10.496  0.6533  0.0006 -0.1298
   39DECAN   C9  379  10.789   0.083  10.376  0.1779  0.4678  0.1893
   39DECAN  C10  380  10.718   0.040  10.246  0.9462  0.3980 -0.2124
   40DECAN   C1  381   9.401   8.098   7.787  0.5789  0.3957  0.1384
   40DECAN   C2  382   9.286   8.126   7.688  0.5091 -1.0871 -0.2136
   40DECAN   C3  383   9.307   8.265   7.627 -0.4244 -0.7090  0.3058
   40DECAN   C4  384   9.207   8.286   7.511  0.3246  0.0510 -0.2103
   40DECAN   C5  385   9.240   8.411   7.427  0.0243  0.4099  0.1993
   40DECAN   C6  386   9.145   8.447   7.311 -0.2028  0.1516  0.3061
   40DECAN   C7  387   9.216   8.528   7.201  0.1609 -0.2778  0.2241
   40DECAN   C8  388   9.114   8.566   7.093  0.6380 -0.2734 -0.2337
   40DECAN   C9  389   9.169   8.667   6.990 -0.1262  0.0282 -0.3582
   40DECAN  C10  390   9.070   8.731   6.892 -0.2902  0.4345  0.0714
   41DECAN   C1  391   1.938   9.630  12.421  0.4497 -0.3749 -0.2658
   41DECAN   C2  392   1.888   9.740  12.325  0.2386  0.2131  0.5090
   41DECAN   C3  393   1.940   9.880  12.360  0.0563  0.3572  0.2029
   41DECAN   C4  394   1.869   9.988  12.276 -0.1945  0.3631  0.4234
   41DECAN   C5  395   1.937  10.124  12.302 -0.4322  0.6046 -0.1935
   41DECAN   C6  396   1.889  10.188  12.433 -0.0330  0.0041  0.2529
   41DECAN   C7  397   1.926  10.337  12.451 -0.3143  0.1071 -0.0282
   41DECAN   C8  398   1.901  10.394  12.592 -0.0802 -0.1522  0.1176
   41DECAN   C9  399   1.982  10.520  12.627 -0.4919  0.0577  0.3131
   41DECAN  C10  400   1.974  10.639  12.529  1.0606 -0.0093  0.0862
   42DECAN   C1  401   3.359   0.465   5.656 -0.7769  0.0625  0.3291
   42DECAN   C2  402   3.342   0.520   5.799 -0.0771 -0.4048  0.5936
   42DECAN   C3  403   3.467   0.484   5.882  0.4920  0.3144  0.0625
   42DECAN   C4  404   3.449   0.493   6.035  0.0569  0.3000  0.0132
   42DECAN   C5  405   3.364   0.376   6.087 -0.3095  0.4192 -0.3078
   42DECAN   C6  406   3.389   0.243   6.013 -0.1864  0.2768 -0.0143
   42DECAN   C7  407   3.296   0.142   6.083  0.0982 -0.0864 -0.1629
   42DECAN   C8  408   3.297   0.001   6.020 -0.1428 -0.0306 -0.2883
   42DECAN   C9  409   3.225  11.142   6.109 -0.1819  0.0365 -0.2425
   42DECAN  C10  410   3.203  11.010   6.032  0.2627 -0.0917 -0.1560
   43DECAN   C1  411   2.521   3.847   4.807 -0.4178  0.0094  0.7521
   43DECAN   C2  412   2.660   3.911   4.789 -0.3190 -0.4238 -0.0586
   43DECAN   C3  413   2.707   4.015   4.892 -0.1204  0.0654 -0.6426
   43DECAN   C4  414   2.855   4.053   4.875  0.1110 -0.5491 -0.0348
   43DECAN   C5  415   2.969   3.966   4.932  0.4360 -0.3767 -0.4153
   43DECAN   C6  416   3.098   4.047   4.948  0.0270  0.1574  0.2208
   43DECAN   C7  417   3.206   3.964   5.019  0.1569 -0.0504 -0.2186
   43DECAN   C8  418   3.329   4.039   5.074 -0.3685  0.5434  0.1537
   43DECAN   C9  419   3.310   4.122   5.203  0.5309  0.1678  0.5353
   43DECAN  C10  420   3.170   4.185   5.213  0.3822 -0.0547 -0.0966
   44DECAN   C1  421   1.010   4.612  10.047  0.0920  0.3055 -0.1459
   44DECAN   C2  422   1.094   4.504  10.118  0.4043  0.6004 -0.0569
   44DECAN   C3  423   1.187   4.417  10.030  0.0641 -0.5040  0.6562
   44DECAN   C4  424   1.297   4.341  10.107  0.6473  0.3164  0.6398
   44DECAN   C5  425   1.396   4.253  10.029  0.0381  0.1832  0.0058
   44DECAN   C6  426   1.424   4.318   9.892  0.2103  0.1161  0.0099
   44DECAN   C7  427   1.297   4.369   9.821 -0.0766 -0.1952  0.2959
   44DECAN   C8  428   1.316   4.416   9.676 -0.1318  0.7239  0.5794
   44DECAN   C9  429   1.411   4.533   9.644  0.2510  0.0791 -0.7319
   44DECAN  C10  430   1.563   4.517   9.666  0.1947 -0.0530 -0.4276
   45DECAN   C1  431   3.729   9.744  11.401  0.0281 -0.1833 -0.2296
   45DECAN   C2  432   3.790   9.621  11.470  0.0103  0.0709  0.2374
   45DECAN   C3  433   3.830   9.508  11.374  0.1570  0.8543 -0.6401
   45DECAN   C4  434   3.717   9.461  11.281  0.3097 -0.1828 -0.3225
   45DECAN   C5  435   3.760   9.354  11.179  0.2003 -0.0737 -0.4831
   45DECAN   C6  436   3.865   9.395  11.074  0.2225  0.1436 -0.3781
   45DECAN   C7  437   3.934   9.283  10.993 -0.1535  0.1901 -0.7669
   45DECAN   C8  438   4.054   9.331  10.910  0.0564 -0.0094 -0.5798
   45DECAN   C9  439   4.104   9.220  10.816  1.0005 -0.1119  0.0247
   45DECAN  C10  440   4.203   9.286  10.719  0.2669  0.1760 -0.5445
   46DECAN   C1  441   5.595   7.996   6.514  0.4402 -0.7872 -0.3988
   46DECAN   C2  442   5.670   8.130   6.520 -0.2991 -0.3806 -0.0880
   46DECAN   C3  443   5.603   8.256   6.462 -0.3325 -0.3398  0.0402
   46DECAN   C4  444   5.677   8.388   6.489 -0.0501 -0.4957  0.0288
   46DECAN   C5  445   5.588   8.504   6.438  0.2467 -0.0524  0.5054
   46DECAN   C6  446   5.455   8.518   6.515 -0.2390  0.2200 -0.3677
   46DECAN   C7  447   5.387   8.387   6.561  0.3214  0.3645  0.9361
   46DECAN   C8  448   5.239   8.392   6.601  0.1034  0.1077  0.1725
   46DECAN   C9  449   5.179   8.253   6.630 -0.2752  0.2299 -0.0224
   46DECAN  C10  450   5.042   8.251   6.702  0.0130 -0.4758  0.5081
   47DECAN   C1  451   6.535   3.891   9.832 -0.0354 -0.2525  0.1392
   47DECAN   C2  452   6.603   3.754   9.814  0.3142 -0.0169 -0.3578
   47DECAN   C3  453   6.655   3.756   9.669  0.6622  0.2525 -0.2296
   47DECAN   C4  454   6.737   3.629   9.640 -0.1475 -0.3493  0.1009
   47DECAN   C5  455   6.763   3.610   9.490 -0.0608  0.0291  0.0688
   47DECAN   C6  456   6.846   3.487   9.449  0.3083  0.1661  0.4037
   47DECAN   C7  457   6.988   3.493   9.508  0.4095 -0.3824  0.2187
   47DECAN   C8  458   7.055   3.354   9.506  0.6195 -0.2860  0.5634
   47DECAN   C9  459   6.973   3.247   9.580  0.0535 -0.3951 -0.2091
   47DECAN  C10  460   7.048   3.114   9.604  0.6869  0.1186  0.7232
   48DECAN   C1  461   5.224   2.582   9.323  0.6238  0.5052 -0.1261
   48DECAN   C2  462   5.266   2.547   9.179 -0.5348 -0.3424 -0.2793
   48DECAN   C3  463   5.261   2.671   9.088 -0.1169 -0.2067 -0.1189
   48DECAN   C4  464   5.298   2.635   8.943  0.2511  0.0519 -0.0910
   48DECAN   C5  465   5.288   2.761   8.854  0.2308  0.2460  0.1863
   48DECAN   C6  466   5.368   2.748   8.723 -0.1244 -0.1543  0.0043
   48DECAN   C7  467   5.363   2.872   8.632 -0.1056 -0.4004 -0.3304
   48DECAN   C8  468   5.434   2.846   8.498  0.4166 -0.2914 -0.0763
   48DECAN   C9  469   5.418   2.968   8.406 -0.3509 -0.5284 -0.2660
   48DECAN  C10  470   5.520   2.962   8.290  0.3699  0.3026  0.3175
   49DECAN   C1  471   4.908   2.854  11.538  0.3403  0.4589 -0.1773
   49DECAN   C2  472   4.830   2.798  11.659  0.4687  0.0036 -0.3026
   49DECAN   C3  473   4.722   2.696  11.618  0.2733 -0.0312  0.3013
   49DECAN   C4  474   4.633   2.645  11.733 -0.4491 -0.3815 -0.4061
   49DECAN   C5  475   4.719   2.549  11.817 -0.2477 -0.0858 -0.2724
   49DECAN   C6  476   4.666   2.499  11.953 -0.1738  0.3433 -0.0859
   49DECAN   C7  477   4.785   2.425  12.018 -0.4192 -0.1255 -0.1691
   49DECAN   C8  478   4.745   2.339  12.139 -0.2743  0.1708  0.0885
   49DECAN   C9  479   4.864   2.318  12.234 -0.5280 -0.2196  0.3232
   49DECAN  C10  480   4.903   2.446  12.310  0.0898  0.0897 -0.5047
   50DECAN   C1  481   3.892   3.992  14.277 -0.7007  0.1584 -0.5859
   50DECAN   C2  482   3.937   4.138  14.261  0.4213 -0.1756 -0.5803
   50DECAN   C3  483   3.816   4.224  14.221  0.2053  0.0184  0.4614
   50DECAN   C4  484   3.758   4.170  14.089  0.7169 -0.2930  0.3621
   50DECAN   C5  485   3.726   4.020  14.106  0.5875 -0.2712  0.3136
   50DECAN   C6  486   3.638   3.961  13.994  0.5267 -0.0199  0.2272
   50DECAN   C7  487   3.579   3.827  14.042 -0.1980  0.1338 -0.2349
   50DECAN   C8  488   3.490   3.755  13.938  0.3149 -0.3720 -0.3257
   50DECAN   C9  489   3.458   3.611  13.984  0.5147 -0.2093  0.3377
   50DECAN  C10  490   3.383   3.598  14.118 -0.0362  0.5970  0.1173
   51DECAN   C1  491  10.577   7.446  10.265  0.0331  0.2848  0.5285
   51DECAN   C2  492  10.506   7.367  10.377 -0.0712  0.1845  0.3930
   51DECAN   C3  493  10.354   7.392  10.373  0.0300  0.7489 -0.2078
   51DECAN   C4  494  10.287   7.346  10.504  0.3133  0.6795 -0.0855
   51DECAN   C5  495  10.351   7.428  10.617  0.1510  0.3515  0.2457
   51DECAN   C6  496  10.345   7.365  10.757  0.4103 -0.3117 -0.0396
   51DECAN   C7  497  10.373   7.452  10.881  0.3974 -0.2668 -0.0688
   51DECAN   C8  498  10.387   7.360  11.005 -0.5564  0.0787  0.3008
   51DECAN   C9  499  10.508   7.267  11.022 -0.2273  0.5226  0.3943
   51DECAN  C10  500  10.505   7.156  11.128  0.1526 -0.3892 -0.5335
   52DECAN   C1  501   8.394   7.292  14.572  0.2540 -0.1677 -0.6924
   52DECAN   C2  502   8.351   7.434  14.534  0.0906 -0.0345 -0.0238
   52DECAN   C3  503   8.415   7.544  14.621 -0.5458  0.0778  0.3162
   52DECAN   C4  504   8.358   7.686  14.611 -0.3429  0.1292 -0.1483
   52DECAN   C5  505   8.456   7.783  14.679 -0.1446  0.0214 -0.2784
   52DECAN   C6  506   8.591   7.800  14.607 -0.1230  0.2606 -0.1822
   52DECAN   C7  507   8.580   7.863  14.467 -0.6133 -0.1628 -0.3393
   52DECAN   C8  508   8.715   7.863  14.393 -0.3143 -0.3652  0.2024
   52DECAN   C9  509   8.701   7.944  14.262 -0.1711  0.1823  0.5240
   52DECAN  C10  510   8.655   8.090  14.284 -0.1701  0.2355  0.1730
   53DECAN   C1  511   9.008  10.501   4.746 -0.4687  0.1038  0.6101
   53DECAN   C2  512   8.970  10.640   4.692  0.6716  0.1150 -0.1897
   53DECAN   C3  513   8.928  10.641   4.543 -0.4509 -0.2928  0.1135
   53DECAN   C4  514   8.834  10.759   4.510 -0.6689 -0.3981  0.3538
   53DECAN   C5  515   8.772  10.769   4.369 -0.2896  0.4374  0.2408
   53DECAN   C6  516   8.704  10.902   4.335 -0.2287  0.5018  0.3633
   53DECAN   C7  517   8.664  10.915   4.186 -0.2368  0.6741  0.3802
   53DECAN   C8  518   8.624  11.061   4.159 -0.2255  0.5515 -0.3163
   53DECAN   C9  519   8.737  11.163   4.180  0.2772 -0.1092  0.2149
   53DECAN  C10  520   8.763  11.189   4.330 -0.2457 -0.3658  0.3521
   54DECAN   C1  521  10.121   2.791  12.617  0.0656 -0.6338 -0.1262
   54DECAN   C2  522   9.982   2.725  12.608  0.0317 -0.6176  0.3006
   54DECAN   C3  523   9.874   2.827  12.651  0.1655 -0.1678 -0.4245
   54DECAN   C4  524   9.729   2.777  12.651  0.1020  0.0073  0.3078
   54DECAN   C5  525   9.624   2.874  12.708  0.1467  0.2254  0.0206
   54DECAN   C6  526   9.490   2.800  12.724  0.3856 -0.1380  0.3495
   54DECAN   C7  527   9.433   2.761  12.586 -0.1406 -0.0212  0.5314
   54DECAN   C8  528   9.284   2.726  12.602 -0.1689 -0.2148 -0.1490
   54DECAN   C9  529   9.216   2.712  12.464 -0.5736 -0.0838  0.0364
   54DECAN  C10  530   9.206   2.572  12.402  0.6846 -0.1040 -0.1461
   55DECAN   C1  531   1.315   2.984  13.178  0.7665 -0.1364  0.1959
   55DECAN   C2  532   1.385   3.007  13.314  0.9626  0.3807  0.0080
   55DECAN   C3  533   1.454   2.878  13.362  0.7195  0.3607  0.3048
   55DECAN   C4  534   1.536   2.884  13.492 -0.0555 -0.0784  0.8200
   55DECAN   C5  535   1.605   2.750  13.523  0.9249  0.2752  0.2076
   55DECAN   C6  536   1.519   2.635  13.580  0.7735  0.1794 -0.2064
   55DECAN   C7  537   1.586   2.505  13.627  0.1038  0.0684  0.4593
   55DECAN   C8  538   1.494   2.429  13.724  0.1200  0.3365  0.6845
   55DECAN   C9  539   1.550   2.292  13.767 -0.1515 -0.0235 -0.1043
   55DECAN  C10  540   1.433   2.225  13.841  0.1375 -0.8556 -0.3902
   56DECAN   C1  541   5.023   8.518   4.322  0.1378  0.2495  0.0409
   56DECAN   C2  542   5.147   8.468   4.398  0.1368 -0.1659 -0.2254
   56DECAN   C3  543   5.281   8.538   4.367  0.3034 -0.5905 -0.4800
   56DECAN   C4  544   5.404   8.456   4.411  0.3367 -0.3752 -0.1674
   56DECAN   C5  545   5.543   8.521   4.400  0.1784  0.0032  0.0345
   56DECAN   C6  546   5.643   8.405   4.414  0.6121  0.4027  0.2612
   56DECAN   C7  547   5.644   8.348   4.557 -0.1628 -0.4276 -0.0551
   56DECAN   C8  548   5.744   8.232   4.566 -0.0392 -0.3400 -0.3092
   56DECAN   C9  549   5.703   8.132   4.456  0.3485  0.0673 -0.8296
   56DECAN  C10  550   5.786   8.004   4.434 -0.3199 -0.4397 -0.4208
   57DECAN   C1  551   6.097   5.765  13.922 -0.0073  0.2704  0.1753
   57DECAN   C2  552   5.945   5.761  13.903  0.0254  0.1600 -0.0693
   57DECAN   C3  553   5.880   5.756  14.043 -0.3203  0.4003 -0.2206
   57DECAN   C4  554   5.727   5.739  14.043 -0.2741 -0.0191 -0.2840
   57DECAN   C5  555   5.672   5.753  14.186 -0.0925 -0.3958 -0.1750
   57DECAN   C6  556   5.521   5.722  14.184 -0.2381  0.2719  0.0272
   57DECAN   C7  557   5.486   5.584  14.126  0.4958  0.0365  0.1331
   57DECAN   C8  558   5.544   5.455  14.187 -0.0618 -0.1444  0.2928
   57DECAN   C9  559   5.480   5.327  14.130  0.4392 -0.1725 -0.2245
   57DECAN  C10  560   5.552   5.203  14.186  0.0113  0.0550  0.8558
   58DECAN   C1  561   3.596   3.932  15.122 -0.1701 -0.2123  0.2334
   58DECAN   C2  562   3.741   3.951  15.074 -0.2467  0.2135  0.1678
   58DECAN   C3  563   3.865   3.884  15.136 -0.5647 -0.6000 -0.0681
   58DECAN   C4  564   3.985   3.931  15.052 -0.1955 -0.6723  0.4188
   58DECAN   C5  565   4.106   3.841  15.085  0.0915 -0.3469  0.2686
   58DECAN   C6  566   4.238   3.906  15.042 -0.4344  0.0751 -0.7576
   58DECAN   C7  567   4.362   3.833  15.099 -0.8179 -0.2353 -0.3121
   58DECAN   C8  568   4.402   3.702  15.030 -0.5021 -0.1854 -0.2250
   58DECAN   C9  569   4.294   3.591  15.031 -0.6029 -0.0913 -0.4831
   58DECAN  C10  570   4.305   3.492  15.149  0.0754  0.1346 -0.3516
   59DECAN   C1  571   1.884  10.442   5.664  0.0528 -0.1389 -0.0562
   59DECAN   C2  572   1.896  10.290   5.650  0.1560 -0.1459  0.0999
   59DECAN   C3  573   1.770  10.211   5.691 -0.4810  0.4391 -0.6936
   59DECAN   C4  574   1.800  10.064   5.725 -0.6038  0.3415 -0.9993
   59DECAN   C5  575   1.809   9.977   5.599  0.2016  0.2013 -0.8573
   59DECAN   C6  576   1.824   9.828   5.634  0.0511  0.3790 -0.0240
   59DECAN   C7  577   1.852   9.736   5.514  0.3050 -0.0027  0.3239
   59DECAN   C8  578   1.832   9.584   5.525 -0.1745  0.0367  0.0191
   59DECAN   C9  579   1.812   9.526   5.383 -0.4069 -0.0077  0.0692
   59DECAN  C10  580   1.789   9.374   5.376  0.7277 -0.1748 -0.1153
   60DECAN   C1  581   5.718   9.303  10.015 -0.1479  0.1489 -0.4739
   60DECAN   C2  582   5.733   9.176  10.102  0.1431  0.3974 -0.1588
   60DECAN   C3  583   5.649   9.172  10.231  0.2141 -0.2054 -0.1321
   60DECAN   C4  584   5.639   9.034  10.299  0.5498 -0.3060 -0.2817
   60DECAN   C5  585   5.538   9.026  10.415  1.2294  0.4309  0.3730
   60DECAN   C6  586   5.542   8.890  10.487  0.2640  0.3721  0.3286
   60DECAN   C7  587   5.450   8.894  10.610 -0.0834  0.2759  0.0755
   60DECAN   C8  588   5.490   8.774  10.698  0.1139  0.0945 -0.2638
   60DECAN   C9  589   5.394   8.762  10.817 -0.0845  0.3647 -0.3947
   60DECAN  C10  590   5.244   8.742  10.789 -0.0392 -0.5157 -0.0478
   61DECAN   C1  591   2.094   0.189   9.160 -0.0472  0.6586  0.1009
   61DECAN   C2  592   2.228   0.236   9.217  0.1213  0.5805 -0.2285
   61DECAN   C3  593   2.342   0.137   9.185 -0.1334  0.0746  0.4130
   61DECAN   C4  594   2.366   0.126   9.034 -0.4347  0.5297  0.3294
   61DECAN   C5  595   2.467   0.016   8.999 -0.0800  0.7959  0.5208
   61DECAN   C6  596   2.550   0.061   8.877  0.0774 -0.0545  0.3064
   61DECAN   C7  597   2.663   0.160   8.909  0.3586 -0.3451  0.2144
   61DECAN   C8  598   2.594   0.289   8.956 -0.0028 -0.5109  0.1481
   61DECAN   C9  599   2.679   0.413   8.990  0.2700 -0.7141  0.2131
   61DECAN  C10  600   2.608   0.536   9.051  0.3190 -0.3342 -0.4865
   62DECAN   C1  601   5.824  10.541   6.940 -0.5000 -0.2275 -0.0772
   62DECAN   C2  602   5.770  10.639   7.046  0.2367 -0.3193  0.3940
   62DECAN   C3  603   5.841  10.776   7.050 -0.1105 -0.1196 -0.0951
   62DECAN   C4  604   5.818  10.874   6.933  0.6500  0.3259  0.1208
   62DECAN   C5  605   5.670  10.915   6.930  0.4829 -0.3032 -0.7391
   62DECAN   C6  606   5.618  10.969   6.796  0.2836 -0.1465 -0.5998
   62DECAN   C7  607   5.682  11.108   6.780  0.3890 -0.0995  0.1954
   62DECAN   C8  608   5.813  11.102   6.699  0.2783  0.2014 -0.0100
   62DECAN   C9  609   5.786  11.114   6.548 -0.1917 -0.1233  0.0456
   62DECAN  C10  610   5.916  11.083   6.470 -0.2213 -0.9098  0.2961
   63DECAN   C1  611   8.710   6.328   3.899 -0.1037  0.2334  0.1900
   63DECAN   C2  612   8.616   6.450   3.906  0.0393  0.3612 -0.0833
   63DECAN   C3  613   8.583   6.519   3.772  0.1698  0.3461 -0.1225
   63DECAN   C4  614   8.496   6.644   3.790  0.0862  0.2143  0.4175
   63DECAN   C5  615   8.346   6.631   3.822  0.2187 -0.3798  0.8036
   63DECAN   C6  616   8.268   6.763   3.815  0.3708 -0.3274  0.0991
   63DECAN   C7  617   8.334   6.889   3.874 -0.0046 -0.3723  0.6227
   63DECAN   C8  618   8.242   7.012   3.884  0.2722 -0.1275  0.2110
   63DECAN   C9  619   8.281   7.116   3.991 -0.4634 -0.1839  0.5453
   63DECAN  C10  620   8.197   7.244   4.007 -0.6161 -0.2551  0.3222
   64DECAN   C1  621   4.627   1.342   3.995  0.0882 -0.0909 -0.1624
   64DECAN   C2  622   4.676   1.478   4.049  0.1434 -0.0956 -0.2009
   64DECAN   C3  623   4.567   1.566   4.112  0.4793  0.1272  0.0740
   64DECAN   C4  624   4.474   1.632   4.009 -0.0512 -0.3118  0.2648
   64DECAN   C5  625   4.387   1.530   3.932 -0.0498  0.1055 -0.2965
   64DECAN   C6  626   4.294   1.476   4.042  0.1496 -0.2123 -0.2808
   64DECAN   C7  627   4.194   1.383   3.972 -0.4475  0.0441  0.2250
   64DECAN   C8  628   4.099   1.311   4.070 -0.1808 -0.3264  0.2102
   64DECAN   C9  629   3.976   1.243   4.006 -0.1394  0.3658 -0.6268
   64DECAN  C10  630   4.022   1.150   3.892 -0.8477 -0.6747 -0.0795
   65DECAN   C1  631   2.804  10.937   6.315  0.2444 -0.3780 -0.1153
   65DECAN   C2  632   2.864  10.853   6.200 -0.0182 -0.3485 -0.2747
   65DECAN   C3  633   2.776  10.820   6.078 -0.4948  0.0154 -0.0337
   65DECAN   C4  634   2.847  10.772   5.950 -0.0610 -0.0230  0.2166
   65DECAN   C5  635   2.759  10.689   5.855 -0.0817  0.1252  0.1054
   65DECAN   C6  636   2.837  10.617   5.743 -0.6873 -0.0613 -0.1983
   65DECAN   C7  637   2.917  10.722   5.664 -0.2303 -0.2327  0.0396
   65DECAN   C8  638   2.996  10.676   5.540  0.1828 -0.3379  0.3392
   65DECAN   C9  639   2.910  10.603   5.435  0.4278 -0.2622  0.0828
   65DECAN  C10  640   2.972  10.576   5.297 -0.1523  0.6200 -0.3559
   66DECAN   C1  641   4.334   0.572  10.233 -0.0714  0.0925 -0.3851
   66DECAN   C2  642   4.468   0.623  10.288 -0.2844 -0.4835  0.6932
   66DECAN   C3  643   4.457   0.760  10.357  0.0770 -0.2966  0.3828
   66DECAN   C4  644   4.415   0.881  10.272  0.7278 -0.0658  0.3823
   66DECAN   C5  645   4.410   1.019  10.341  0.4447  0.1875 -0.1344
   66DECAN   C6  646   4.369   1.140  10.256  0.0901  0.1031 -0.0832
   66DECAN   C7  647   4.454   1.151  10.128  0.0751  0.3596 -0.0711
   66DECAN   C8  648   4.419   1.060  10.009  0.1664 -0.3935  0.4677
   66DECAN   C9  649   4.479   1.104   9.874 -0.7602 -0.2903  0.0831
   66DECAN  C10  650   4.409   1.045   9.749 -1.1254  0.1955  0.0575
   67DECAN   C1  651   8.606   1.510   9.266 -0.3325 -0.5784  0.2982
   67DECAN   C2  652   8.686   1.599   9.363 -0.5124 -0.3105  0.1985
   67DECAN   C3  653   8.803   1.519   9.422 -0.3282 -0.2074 -0.0251
   67DECAN   C4  654   8.742   1.387   9.472 -0.6203 -0.2801 -0.5711
   67DECAN   C5  655   8.825   1.311   9.577 -0.2068  0.6807 -0.1898
   67DECAN   C6  656   8.970   1.314   9.524 -0.1830 -0.1164 -0.1902
   67DECAN   C7  657   9.061   1.275   9.642 -0.0591  0.6013 -0.0421
   67DECAN   C8  658   9.060   1.377   9.758 -0.3152  0.6222 -0.0601
   67DECAN   C9  659   9.177   1.369   9.858 -0.3510  0.7133 -0.0109
   67DECAN  C10  660   9.319   1.389   9.802 -0.2252  0.3931  0.1884
   68DECAN   C1  661   6.189   1.069  14.115 -0.2632 -0.3684 -0.1319
   68DECAN   C2  662   6.189   1.180  14.009 -0.2606  0.2337  0.4904
   68DECAN   C3  663   6.084   1.170  13.897  0.0311  0.3520  0.2018
   68DECAN   C4  664   6.116   1.235  13.761 -0.0267 -0.4949 -0.2255
   68DECAN   C5  665   6.122   1.386  13.793 -0.2384 -0.4983 -0.1696
   68DECAN   C6  666   6.240   1.431  13.880 -0.1586  0.0896 -0.5714
   68DECAN   C7  667   6.383   1.426  13.823  0.1189  0.5074  0.0718
   68DECAN   C8  668   6.499   1.478  13.910  0.5372 -0.1937 -0.0604
   68DECAN   C9  669   6.641   1.483  13.850  0.4750 -0.5871 -0.2427
   68DECAN  C10  670   6.653   1.590  13.741  0.1650 -0.2822  0.0208
   69DECAN   C1  671   6.142   8.556   6.582  0.1757  0.0418  0.8021
   69DECAN   C2  672   6.067   8.584   6.714  0.1152  0.8130  0.6140
   69DECAN   C3  673   5.978   8.709   6.711  0.1225  0.8122  0.3210
   69DECAN   C4  674   5.914   8.725   6.850  0.1328  0.3242  0.3814
   69DECAN   C5  675   5.821   8.607   6.882 -0.1829  0.2807 -0.6578
   69DECAN   C6  676   5.715   8.628   6.992  0.3339 -0.1922 -0.0601
   69DECAN   C7  677   5.612   8.514   6.984  0.2577 -0.1605  0.3897
   69DECAN   C8  678   5.510   8.495   7.097 -0.0028 -0.0154  0.1785
   69DECAN   C9  679   5.402   8.393   7.052  0.3439 -0.0791 -0.5266
   69DECAN  C10  680   5.447   8.250   7.019 -0.0932 -0.3709  0.1179
   70DECAN   C1  681   7.510   6.829   5.456 -0.6829  0.2604  0.1972
   70DECAN   C2  682   7.610   6.947   5.462 -0.7441  0.3425 -0.3807
   70DECAN   C3  683   7.686   6.968   5.330 -0.0606  0.1709 -0.0172
   70DECAN   C4  684   7.750   6.840   5.273 -0.2435 -0.0982  0.3811
   70DECAN   C5  685   7.842   6.857   5.150  0.0272 -0.2629  0.5584
   70DECAN   C6  686   7.888   6.724   5.088 -0.5862 -0.2085 -0.0257
   70DECAN   C7  687   7.990   6.738   4.972 -0.2086  0.2497  0.3556
   70DECAN   C8  688   7.948   6.846   4.872  0.7898  0.3540  0.0446
   70DECAN   C9  689   7.957   6.994   4.917 -0.3021  0.2693  0.5614
   70DECAN  C10  690   7.938   7.085   4.794  0.4000 -0.7558 -0.3277
   71DECAN   C1  691   2.660   2.480   6.908 -0.2994  0.3222 -0.0781
   71DECAN   C2  692   2.604   2.357   6.981  0.4025  0.2127  0.2781
   71DECAN   C3  693   2.657   2.319   7.121 -0.1224 -0.1731  0.3724
   71DECAN   C4  694   2.572   2.199   7.169 -0.3856 -0.1453 -0.0193
   71DECAN   C5  695   2.573   2.082   7.069  0.1161 -0.3394  0.2070
   71DECAN   C6  696   2.483   1.964   7.110 -0.1550 -0.2374 -0.0892
   71DECAN   C7  697   2.477   1.848   7.010  0.3358 -0.4602  0.1379
   71DECAN   C8  698   2.347   1.765   7.005  0.0838 -0.0416 -0.3857
   71DECAN   C9  699   2.219   1.849   7.019 -0.0145 -0.3047  0.3653
   71DECAN  C10  700   2.210   1.914   7.158  0.1563  0.2733  0.1074
   72DECAN   C1  701   2.242   8.465  14.152 -0.0953  0.5505 -0.2318
   72DECAN   C2  702   2.129   8.395  14.075 -0.2676  0.2804  0.2620
   72DECAN   C3  703   1.999   8.477  14.079  0.0844  0.8845 -0.4700
   72DECAN   C4  704   1.881   8.417  14.000  0.1903 -0.2053  0.1804
   72DECAN   C5  705   1.907   8.433  13.849 -0.9553 -0.0508 -0.0081
   72DECAN   C6  706   1.802   8.375  13.752 -0.2152 -0.8387 -0.3572
   72DECAN   C7  707   1.817   8.433  13.610  0.3884  0.0206  0.0469
   72DECAN   C8  708   1.738   8.370  13.494  0.3656  0.5722 -0.2407
   72DECAN   C9  709   1.781   8.443  13.365 -0.2734  0.3070 -0.6086
   72DECAN  C10  710   1.689   8.418  13.244 -0.4963 -0.0006 -0.3763
   73DECAN   C1  711   4.246   2.123   8.456 -0.7019 -0.2358  0.2243
   73DECAN   C2  712   4.161   2.209   8.360 -0.7649 -0.8937 -0.3172
   73DECAN   C3  713   4.230   2.335   8.304 -0.4871 -0.4685  0.9608
   73DECAN   C4  714   4.147   2.394   8.188  0.4611 -0.1151  0.4561
   73DECAN   C5  715   4.016   2.452   8.243  0.0604 -0.2118 -0.3874
   73DECAN   C6  716   3.942   2.515   8.124 -0.0718 -0.0497 -0.2193
   73DECAN   C7  717   3.815   2.589   8.170  0.1002  0.0861  0.0370
   73DECAN   C8  718   3.738   2.676   8.069  0.4568  0.0407 -0.2747
   73DECAN   C9  719   3.597   2.715   8.116  0.8716  0.7884  0.3779
   73DECAN  C10  720   3.510   2.774   8.003  0.0296  0.0178  0.6117
   74DECAN   C1  721   7.832   6.238  14.659 -0.5089 -0.1422  0.5529
   74DECAN   C2  722   7.788   6.374  14.602  0.1222 -0.1775 -0.0357
   74DECAN   C3  723   7.882   6.439  14.499  0.4446 -0.4374  0.0954
   74DECAN   C4  724   7.911   6.358  14.371  0.2798 -0.2741 -0.0433
   74DECAN   C5  725   8.000   6.429  14.269  0.3293 -1.1256 -0.6028
   74DECAN   C6  726   8.004   6.364  14.129  0.1646 -0.5413 -0.8829
   74DECAN   C7  727   8.118   6.265  14.100  0.7092 -0.1198 -0.2114
   74DECAN   C8  728   8.115   6.214  13.955 -0.0276 -0.2023 -0.1737
   74DECAN   C9  729   8.149   6.323  13.852 -0.0957  0.0620  0.0834
   74DECAN  C10  730   8.177   6.281  13.706 -0.1929  0.3643 -0.0244
   75DECAN   C1  731   7.230   6.637   4.325  0.0108  0.2741  0.0168
   75DECAN   C2  732   7.301   6.751   4.249  0.2704 -0.0086 -0.1668
   75DECAN   C3  733   7.442   6.709   4.202  0.6051  0.7437  0.1579
   75DECAN   C4  734   7.517   6.623   4.305  0.5193  0.7200  0.2010
   75DECAN   C5  735   7.643   6.551   4.253  0.0245 -0.0847  0.1199
   75DECAN   C6  736   7.710   6.464   4.362  0.3495 -0.1979 -0.1708
   75DECAN   C7  737   7.860   6.448   4.332  0.2431 -0.5430 -0.5226
   75DECAN   C8  738   7.936   6.368   4.440  0.2047  0.2114  0.0665
   75DECAN   C9  739   7.940   6.442   4.575  0.2710 -0.4968  0.4554
   75DECAN  C10  740   7.808   6.459   4.651  0.0316 -0.1270 -0.0356
   76DECAN   C1  741   4.577   4.376   5.233  0.0056  0.1394  0.0477
   76DECAN   C2  742   4.728   4.359   5.254 -0.0585 -0.8229 -0.2353
   76DECAN   C3  743   4.748   4.339   5.405  0.3263  0.1791 -0.1471
   76DECAN   C4  744   4.678   4.214   5.461 -0.0054  0.1493 -0.6321
   76DECAN   C5  745   4.686   4.232   5.613 -0.2210 -0.0781 -0.5918
   76DECAN   C6  746   4.835   4.247   5.650 -0.4050 -0.0225  0.1460
   76DECAN   C7  747   4.854   4.275   5.800  0.0021  0.1515  0.0614
   76DECAN   C8  748   4.783   4.405   5.843 -0.2229 -0.1125  0.4874
   76DECAN   C9  749   4.847   4.534   5.791 -0.1467  0.0051  0.8687
   76DECAN  C10  750   4.878   4.652   5.885  0.0004  0.7453 -0.0975
   77DECAN   C1  751   8.739   6.593   7.668  0.3672 -0.2909  0.0518
   77DECAN   C2  752   8.617   6.624   7.580  0.3837  0.0845  0.1583
   77DECAN   C3  753   8.568   6.770   7.576  0.7871  0.2072 -0.2944
   77DECAN   C4  754   8.462   6.797   7.467  0.0141 -0.3716  0.3065
   77DECAN   C5  755   8.330   6.728   7.506 -0.1761 -0.0329  0.2611
   77DECAN   C6  756   8.223   6.766   7.402  0.0671 -0.6825 -0.2339
   77DECAN   C7  757   8.086   6.699   7.424 -0.1905  0.0198  0.3687
   77DECAN   C8  758   7.983   6.725   7.312  0.1791 -0.3108 -0.0564
   77DECAN   C9  759   7.933   6.867   7.346 -0.0120 -0.2711 -0.5069
   77DECAN  C10  760   7.832   6.927   7.246  0.3203  0.2639 -0.5208
   78DECAN   C1  761   2.651   6.001   8.321 -0.2505  0.3521 -0.5101
   78DECAN   C2  762   2.710   5.864   8.358 -0.6416  0.2888 -0.1123
   78DECAN   C3  763   2.625   5.752   8.295  0.4678 -0.4717 -0.2868
   78DECAN   C4  764   2.675   5.611   8.333  0.1600 -0.3657  0.5197
   78DECAN   C5  765   2.605   5.508   8.243  0.5425  0.2428 -0.5009
   78DECAN   C6  766   2.663   5.365   8.252  0.2289  0.1642  0.3471
   78DECAN   C7  767   2.616   5.286   8.376  0.2043 -0.4553 -0.0535
   78DECAN   C8  768   2.686   5.153   8.408  0.2562 -0.4041  0.0481
   78DECAN   C9  769   2.705   5.072   8.278  0.4745  0.1627 -0.2776
   78DECAN  C10  770   2.798   4.951   8.296 -0.0589 -0.2951 -0.5560
   79DECAN   C1  771   4.036   0.638   9.842 -0.2709 -0.1192 -0.1442
   79DECAN   C2  772   3.993   0.740   9.949  0.8997  0.4464 -0.2059
   79DECAN   C3  773   4.009   0.893   9.934  0.3678  0.5184 -0.0383
   79DECAN   C4  774   3.940   0.969  10.048  0.3607  0.4905 -0.0235
   79DECAN   C5  775   3.980   0.918  10.188  0.3037 -0.1100 -0.2258
   79DECAN   C6  776   3.958   1.011  10.309  0.3385  0.0087 -0.3104
   79DECAN   C7  777   3.813   1.015  10.363  0.5561 -0.5201  0.3265
   79DECAN   C8  778   3.768   0.895  10.448 -0.1210 -0.1011  0.5609
   79DECAN   C9  779   3.616   0.897  10.472 -0.2684 -0.4072 -0.3108
   79DECAN  C10  780   3.529   0.876  10.347 -0.0139  0.4036 -0.6329
   80DECAN   C1  781   3.189   0.162   7.156 -0.5463 -0.3443  0.1863
   80DECAN   C2  782   3.085   0.057   7.114 -0.5355 -0.3213  0.1015
   80DECAN   C3  783   2.973   0.129   7.037 -0.0671 -0.0275 -0.3104
   80DECAN   C4  784   3.011   0.177   6.896 -0.3595 -0.0151 -0.3851
   80DECAN   C5  785   2.900   0.273   6.849 -0.4102  0.1692  0.1096
   80DECAN   C6  786   2.918   0.356   6.720  0.0384 -0.3591 -0.1720
   80DECAN   C7  787   2.814   0.466   6.691 -0.2696 -0.6942 -0.3440
   80DECAN   C8  788   2.850   0.543   6.563 -0.6918 -0.3955 -0.2853
   80DECAN   C9  789   2.766   0.670   6.539 -0.2876 -0.0723 -0.0030
   80DECAN  C10  790   2.762   0.724   6.395 -0.0079 -0.7594 -0.2701
   81DECAN   C1  791   1.336  11.229   8.270 -0.0657  0.2455 -0.3974
   81DECAN   C2  792   1.246  11.121   8.206  0.0716 -0.1194  0.0275
   81DECAN   C3  793   1.252  11.119   8.052  0.0900 -0.4543  0.0307
   81DECAN   C4  794   1.391  11.084   7.997  0.2713  0.8310 -0.3774
   81DECAN   C5  795   1.392  11.093   7.843  0.1807 -0.3534 -0.4635
   81DECAN   C6  796   1.513  11.023   7.780  0.2483 -0.9135  0.2695
   81DECAN   C7  797   1.644  11.095   7.816  0.1241 -0.6147  0.1248
   81DECAN   C8  798   1.763  11.012   7.765  0.7841  0.4967 -0.1835
   81DECAN   C9  799   1.901  11.048   7.824  0.8488  0.1467 -0.1177
   81DECAN  C10  800   2.000  10.938   7.780  0.3776 -0.1886 -0.3543
   82DECAN   C1  801   8.489   4.354   4.163 -0.0442 -0.0704  0.2733
   82DECAN   C2  802   8.512   4.202   4.158 -0.3385 -0.1069  0.0272
   82DECAN   C3  803   8.457   4.121   4.038  0.3043 -0.0827 -0.2859
   82DECAN   C4  804   8.489   3.971   4.048 -0.2658 -0.1951 -0.1040
   82DECAN   C5  805   8.640   3.942   4.065 -0.2775 -0.4396 -0.4087
   82DECAN   C6  806   8.676   3.794   4.086  0.1420 -0.2886 -0.0434
   82DECAN   C7  807   8.587   3.706   3.995 -0.2379  0.3721 -0.3146
   82DECAN   C8  808   8.446   3.686   4.054 -0.0859  0.0191 -0.0652
   82DECAN   C9  809   8.336   3.607   3.981 -0.3298  0.5043 -0.2289
   82DECAN  C10  810   8.194   3.602   4.042 -0.4280 -0.1775 -0.5079
   83DECAN   C1  811   1.012  10.308  11.484  0.0295  0.0535  0.1116
   83DECAN   C2  812   1.131  10.394  11.438 -0.0113  0.0082 -0.0806
   83DECAN   C3  813   1.158  10.385  11.287  0.8073 -0.0220  0.0635
   83DECAN   C4  814   1.260  10.485  11.230 -0.1031  0.7664 -0.2043
   83DECAN   C5  815   1.290  10.482  11.079  0.2869  0.2570 -0.1182
   83DECAN   C6  816   1.400  10.583  11.041  0.0606  0.3981 -0.4005
   83DECAN   C7  817   1.410  10.710  11.129  0.1860  0.0335  0.1173
   83DECAN   C8  818   1.531  10.796  11.088  0.0041  0.0738 -0.3510
   83DECAN   C9  819   1.571  10.916  11.176 -0.0622  0.0488 -0.2870
   83DECAN  C10  820   1.467  11.028  11.156 -0.2311 -0.1150 -0.3372
   84DECAN   C1  821   7.495   5.044  10.000  0.2032 -0.5552  0.1082
   84DECAN   C2  822   7.586   5.061  10.123  0.4008 -0.5391 -0.0386
   84DECAN   C3  823   7.710   4.971  10.113  0.5717 -0.3216  0.1024
   84DECAN   C4  824   7.686   4.821  10.088  0.3670 -0.2166 -0.3556
   84DECAN   C5  825   7.822   4.752  10.115  0.2323 -0.3586 -0.0292
   84DECAN   C6  826   7.801   4.600  10.131 -0.1711 -0.3508 -0.4521
   84DECAN   C7  827   7.930   4.516  10.132 -0.0190 -0.1287 -0.8900
   84DECAN   C8  828   7.907   4.366  10.110  0.0592 -0.2440 -0.2193
   84DECAN   C9  829   7.791   4.313  10.196 -0.1081  0.3502 -0.0819
   84DECAN  C10  830   7.733   4.182  10.140 -0.2414  0.5546 -0.4286
   85DECAN   C1  831   8.618   6.678   8.596 -0.0972 -0.0512 -0.0522
   85DECAN   C2  832   8.722   6.565   8.602  0.2276  0.2448 -0.0575
   85DECAN   C3  833   8.811   6.589   8.725 -0.1073  0.2202  0.1913
   85DECAN   C4  834   8.920   6.486   8.763 -0.7054 -0.4967 -0.0090
   85DECAN   C5  835   9.010   6.462   8.641  0.1688 -0.0210  0.5294
   85DECAN   C6  836   9.131   6.377   8.682  0.2856  0.0966  0.4295
   85DECAN   C7  837   9.216   6.322   8.566 -0.3416 -0.6995  0.3364
   85DECAN   C8  838   9.315   6.219   8.623  0.6372  0.0467  0.0171
   85DECAN   C9  839   9.248   6.083   8.652  0.1973  0.2654  0.0277
   85DECAN  C10  840   9.135   6.092   8.756 -0.2202 -0.1048 -0.3905
   86DECAN   C1  841   2.196   5.282   8.247  0.0878 -0.4019 -0.0178
   86DECAN   C2  842   2.126   5.360   8.134  0.0045  0.5363  0.6759
   86DECAN   C3  843   1.986   5.302   8.105  0.1269  0.3305  0.4949
   86DECAN   C4  844   1.926   5.342   7.970  0.3329  0.1786  0.3580
   86DECAN   C5  845   1.775   5.310   7.965  0.3873 -0.0039 -0.2298
   86DECAN   C6  846   1.702   5.379   7.849 -0.3969 -0.6589 -0.1315
   86DECAN   C7  847   1.557   5.332   7.823 -0.6674  0.4212 -0.6128
   86DECAN   C8  848   1.464   5.311   7.944  0.0538  0.3491 -0.0669
   86DECAN   C9  849   1.333   5.241   7.902  0.1790  0.2038 -0.2192
   86DECAN  C10  850   1.202   5.276   7.975  0.2621  0.1348 -0.0363
   87DECAN   C1  851   4.179   0.648  13.064 -0.0517  0.2972 -0.4342
   87DECAN   C2  852   4.251   0.571  12.951  0.2345 -0.1166  0.0239
   87DECAN   C3  853   4.204   0.425  12.939  0.2809 -0.1238 -0.0738
   87DECAN   C4  854   4.244   0.334  12.822  0.4525 -0.4204  0.2124
   87DECAN   C5  855   4.195   0.381  12.684 -0.0188  0.2333  0.5973
   87DECAN   C6  856   4.046   0.419  12.681  0.0436  0.4510 -0.2020
   87DECAN   C7  857   4.001   0.485  12.549 -0.7757  0.0652 -0.1231
   87DECAN   C8  858   4.019   0.394  12.426  0.2600 -0.0184  0.0774
   87DECAN   C9  859   3.908   0.415  12.322 -0.2998  0.5053  0.7667
   87DECAN  C10  860   3.903   0.552  12.252 -0.3218 -0.2403 -0.7356
   88DECAN   C1  861   7.515  10.392   8.229 -0.6641 -0.0030 -0.2723
   88DECAN   C2  862   7.523  10.238   8.216 -0.4576  0.0397 -0.6590
   88DECAN   C3  863   7.415  10.168   8.300  0.3439  0.0092  0.3627
   88DECAN   C4  864   7.474  10.079   8.412  0.1045 -0.2279  0.3029
   88DECAN   C5  865   7.363  10.005   8.489 -0.0125  0.1202  0.4742
   88DECAN   C6  866   7.424   9.917   8.599 -0.8777 -0.3149  0.6097
   88DECAN   C7  867   7.432   9.973   8.742  0.6531  0.4945  0.2230
   88DECAN   C8  868   7.550  10.070   8.765  1.2471 -0.2783  0.4973
   88DECAN   C9  869   7.520  10.195   8.850  0.0629  0.0344 -0.3488
   88DECAN  C10  870   7.653  10.259   8.892  0.2845 -0.2976 -0.5402
   89DECAN   C1  871   2.391   9.359  13.958  0.9186 -0.4279  0.4300
   89DECAN   C2  872   2.327   9.301  14.085  0.4043  0.3332  0.5215
   89DECAN   C3  873   2.279   9.156  14.071  0.1889  0.4791 -0.2873
   89DECAN   C4  874   2.166   9.133  13.970 -0.0559  0.3659  0.0100
   89DECAN   C5  875   2.123   8.985  13.973 -0.0718  0.3638 -0.2814
   89DECAN   C6  876   2.072   8.933  13.837 -0.0291 -0.2650 -0.0595
   89DECAN   C7  877   1.920   8.947  13.817 -0.0215  0.3614  0.2995
   89DECAN   C8  878   1.861   8.845  13.718  0.5215 -0.2722  0.6195
   89DECAN   C9  879   1.708   8.861  13.715  0.5968  0.3537 -0.2475
   89DECAN  C10  880   1.626   8.793  13.604 -0.1326 -0.0671  0.5440
   90DECAN   C1  881   3.342   7.505  14.570 -0.8531 -0.2639  0.2160
   90DECAN   C2  882   3.331   7.642  14.502 -0.4788 -0.5672 -0.4774
   90DECAN   C3  883   3.261   7.758  14.576  0.2856 -0.3428 -0.1012
   90DECAN   C4  884   3.234   7.888  14.498  0.8417  0.3738  0.8815
   90DECAN   C5  885   3.166   7.998  14.583 -0.0351  0.1404  0.4882
   90DECAN   C6  886   3.023   7.965  14.632 -0.3624  0.1258 -0.4463
   90DECAN   C7  887   2.957   8.055  14.738 -0.3044 -0.2275 -0.1077
   90DECAN   C8  888   2.803   8.053  14.734 -0.3050  0.0041 -0.2086
   90DECAN   C9  889   2.741   8.155  14.831 -0.4552 -0.1947 -0.0956
   90DECAN  C10  890   2.763   8.119  14.980 -0.0516 -0.6113 -0.2537
   91DECAN   C1  891   7.300   4.916   4.837  0.2839 -0.9159 -0.2661
   91DECAN   C2  892   7.226   4.784   4.807 -0.4427 -0.4990 -0.3359
   91DECAN   C3  893   7.115   4.750   4.909 -0.5027 -0.1873 -0.2969
   91DECAN   C4  894   7.058   4.608   4.918  0.5039 -0.5698  0.1665
   91DECAN   C5  895   6.934   4.583   5.005 -0.0017  0.1536 -0.3401
   91DECAN   C6  896   6.865   4.445   4.994  0.2460  0.0549 -0.6555
   91DECAN   C7  897   6.929   4.307   5.016 -0.4978 -0.1272  0.4039
   91DECAN   C8  898   6.833   4.186   5.011  0.0610 -0.5700  0.2027
   91DECAN   C9  899   6.733   4.188   4.893  0.1058  0.0994  0.1706
   91DECAN  C10  900   6.623   4.081   4.908 -0.2805  0.4629 -0.0389
   92DECAN   C1  901   3.039   5.150  12.142 -1.1255  0.7762  0.2647
   92DECAN   C2  902   3.135   5.259  12.089 -0.6488  0.1649 -0.1373
   92DECAN   C3  903   3.173   5.358  12.200  0.0042 -0.0728 -0.1458
   92DECAN   C4  904   3.215   5.293  12.333  0.0035  0.0246 -0.0973
   92DECAN   C5  905   3.123   5.202  12.416  0.1383  0.5326  0.6118
   92DECAN   C6  906   3.187   5.144  12.543  0.0340  0.5880  0.6894
   92DECAN   C7  907   3.096   5.040  12.612  0.3651  0.1011  0.3983
   92DECAN   C8  908   3.157   4.991  12.745 -0.2152 -0.5688  0.4200
   92DECAN   C9  909   3.309   4.971  12.731 -0.2402 -0.3404 -0.2283
   92DECAN  C10  910   3.399   5.092  12.760 -0.2918 -0.4288  0.3294
   93DECAN   C1  911   3.842   7.172   8.714  0.4223 -0.2049 -0.0063
   93DECAN   C2  912   3.746   7.130   8.826  0.2608  0.3106  0.0513
   93DECAN   C3  913   3.594   7.131   8.800  0.2854  0.3653 -0.0884
   93DECAN   C4  914   3.537   7.023   8.706  0.0249  0.1749  0.2859
   93DECAN   C5  915   3.575   6.875   8.731 -0.1649  0.1165  0.2299
   93DECAN   C6  916   3.474   6.800   8.820 -0.5413 -0.1098 -0.3893
   93DECAN   C7  917   3.489   6.646   8.816  0.2735 -0.0417 -0.1452
   93DECAN   C8  918   3.422   6.569   8.931  0.3114 -0.1769 -0.2143
   93DECAN   C9  919   3.450   6.419   8.952  0.1901 -0.2112 -0.3004
   93DECAN  C10  920   3.362   6.326   9.038  0.2114 -0.0703 -0.1274
   94DECAN   C1  921   7.060   2.147   3.791  0.2006  0.5489  0.0185
   94DECAN   C2  922   6.986   2.279   3.817  0.1144  0.3381  0.8787
   94DECAN   C3  923   6.833   2.270   3.819  0.1269 -0.0601  0.1016
   94DECAN   C4  924   6.763   2.407   3.827 -0.2321 -0.2240 -0.1332
   94DECAN   C5  925   6.795   2.499   3.947 -0.0693 -0.2595 -0.1490
   94DECAN   C6  926   6.708   2.626   3.947 -0.2037 -0.3501 -0.4714
   94DECAN   C7  927   6.758   2.741   3.858 -0.2353 -0.2896 -0.4110
   94DECAN   C8  928   6.696   2.878   3.894  0.7003 -0.0697  0.4132
   94DECAN   C9  929   6.738   2.991   3.799  0.0417 -0.0085  0.1897
   94DECAN  C10  930   6.712   3.130   3.860 -0.1158 -0.0329  0.1792
   95DECAN   C1  931   8.765   8.247   9.901 -0.3351 -0.0147 -0.2374
   95DECAN   C2  932   8.817   8.117   9.837  0.2383  0.2183 -0.2536
   95DECAN   C3  933   8.864   8.018   9.945  0.0656  0.3353 -0.0691
   95DECAN   C4  934   8.768   7.924  10.020  0.4202 -0.1538 -0.2243
   95DECAN   C5  935   8.825   7.863  10.149  0.2659 -0.3783 -0.2624
   95DECAN   C6  936   8.938   7.762  10.119  0.5635 -0.0186 -0.3500
   95DECAN   C7  937   8.982   7.698  10.252  0.2651  0.1093 -0.1881
   95DECAN   C8  938   9.109   7.614  10.231  0.1897 -0.0606  0.0400
   95DECAN   C9  939   9.228   7.705  10.198 -0.1721  0.2823 -0.3407
   95DECAN  C10  940   9.360   7.630  10.169 -0.4358 -0.5673  0.5970
   96DECAN   C1  941   1.133   3.182  10.243 -0.3997 -0.5219  0.1939
   96DECAN   C2  942   1.067   3.227  10.374  0.1678  0.1269  0.2577
   96DECAN   C3  943   1.059   3.381  10.362  0.6548  0.1318 -0.0468
   96DECAN   C4  944   1.005   3.438  10.230  0.4926 -0.3949 -0.2100
   96DECAN   C5  945   1.028   3.349  10.106 -0.2432 -0.4403 -0.3164
   96DECAN   C6  946   0.956   3.393   9.977 -0.0700 -0.0767 -0.2870
   96DECAN   C7  947   0.997   3.301   9.861 -0.0091 -0.4798  0.0529
   96DECAN   C8  948   0.946   3.344   9.723 -0.3599  0.0388  0.3405
   96DECAN   C9  949   0.796   3.310   9.713 -0.5128  0.4935  1.0237
   96DECAN  C10  950   0.727   3.333   9.577  0.0326  0.0481  0.6647
   97DECAN   C1  951  10.531   5.041   9.231 -0.8165 -0.1441 -0.5102
   97DECAN   C2  952  10.470   4.916   9.164 -0.2307 -0.4695 -0.4397
   97DECAN   C3  953  10.381   4.851   9.271 -0.3963 -0.2522 -0.4434
   97DECAN   C4  954  10.449   4.815   9.404 -0.1840  0.2316 -0.4205
   97DECAN   C5  955  10.351   4.734   9.490  0.1239 -0.0680 -0.3478
   97DECAN   C6  956  10.395   4.686   9.630  0.1412 -0.0789 -0.3570
   97DECAN   C7  957  10.266   4.648   9.706  0.5780 -0.6184  0.1132
   97DECAN   C8  958  10.174   4.545   9.639 -0.5339  0.2941  0.2170
   97DECAN   C9  959  10.051   4.491   9.715 -0.4689 -0.2591 -0.0641
   97DECAN  C10  960  10.107   4.417   9.838  0.1910  0.0049 -0.2013
   98DECAN   C1  961   1.756   3.433   7.740  0.4818  0.5432 -0.1985
   98DECAN   C2  962   1.728   3.346   7.616  0.2745 -0.3138  0.4395
   98DECAN   C3  963   1.842   3.265   7.552  0.2578 -0.1796  0.2378
   98DECAN   C4  964   1.780   3.184   7.436  0.5682  0.0954 -0.1241
   98DECAN   C5  965   1.877   3.108   7.345  0.1726  0.3397 -0.7519
   98DECAN   C6  966   1.809   3.030   7.231  0.2634 -0.2847 -0.3766
   98DECAN   C7  967   1.681   3.084   7.164  0.3022  0.2724 -0.0069
   98DECAN   C8  968   1.691   3.229   7.114  0.1060  0.4084  0.3377
   98DECAN   C9  969   1.572   3.274   7.028  0.0361  0.0750  0.2579
   98DECAN  C10  970   1.536   3.187   6.906  0.0670  0.3976  0.0156
   99DECAN   C1  971   8.568   5.002   6.898  0.0773  0.0734 -0.0363
   99DECAN   C2  972   8.465   5.049   6.794 -0.1137  0.1025  0.1648
   99DECAN   C3  973   8.458   4.984   6.655 -0.2859 -0.5773  0.4895
   99DECAN   C4  974   8.386   4.848   6.643 -0.0393 -0.6520 -0.1775
   99DECAN   C5  975   8.392   4.773   6.508 -0.2754 -0.3012 -0.3859
   99DECAN   C6  976   8.278   4.817   6.414  0.0594  0.0821 -0.6110
   99DECAN   C7  977   8.261   4.965   6.376 -0.1524  0.2650  0.1744
   99DECAN   C8  978   8.168   5.011   6.262  0.0845 -0.0153 -0.1343
   99DECAN   C9  979   8.171   5.160   6.223  0.1205  0.1413  0.4547
   99DECAN  C10  980   8.194   5.237   6.354  0.1239  0.0918  0.4834
  100DECAN   C1  981   1.604   4.032  13.870 -0.2560 -0.2745 -0.2206
  100DECAN   C2  982   1.535   4.094  13.747 -0.3705  0.2601  0.1089
  100DECAN   C3  983   1.518   4.246  13.728 -0.2526  0.2330 -0.2086
  100DECAN   C4  984   1.441   4.281  13.599 -0.3380 -0.1988 -0.2784
  100DECAN   C5  985   1.467   4.427  13.560  0.2140 -0.2107  0.0338
  100DECAN   C6  986   1.399   4.480  13.432 -0.2185 -0.4357  0.1696
  100DECAN   C7  987   1.437   4.629  13.419 -0.1940 -0.4474  0.1021
  100DECAN   C8  988   1.589   4.654  13.425 -0.3589  0.5854  0.0130
  100DECAN   C9  989   1.640   4.786  13.363  0.0902  0.5272  0.2541
  100DECAN  C10  990   1.794   4.786  13.369  0.1223  0.0546 -0.4908
  101DECAN   C1  991   3.767   2.109   8.138 -0.8530 -0.0780 -0.6315
  101DECAN   C2  992   3.895   2.118   8.053 -0.2943 -0.4771  0.1466
  101DECAN   C3  993   3.897   2.046   7.917  0.2109  0.6639 -0.4611
  101DECAN   C4  994   3.809   2.122   7.816  0.3789  0.0448 -1.0818
  101DECAN   C5  995   3.658   2.092   7.811  0.3754 -0.0948 -0.2263
  101DECAN   C6  996   3.643   1.945   7.768 -0.0897 -0.1860  0.2390
  101DECAN   C7  997   3.687   1.925   7.622  0.5390  0.3679  0.3501
  101DECAN   C8  998   3.653   1.793   7.551  1.1932  0.4464 -0.1141
  101DECAN   C9  999   3.655   1.795   7.397 -0.1269 -0.1791 -0.1532
  101DECAN  C10 1000   3.793   1.826   7.335  0.2764 -0.2188  0.7019
  102DECAN   C1 1001   2.906   2.990  10.975 -0.1890  0.2392  0.6068
  102DECAN   C2 1002   2.832   2.856  10.991  0.2064 -0.0558 -0.0189
  102DECAN   C3 1003   2.906   2.743  10.916 -0.0203  0.1515 -0.5611
  102DECAN   C4 1004   2.833   2.607  10.915  0.4459 -0.1000 -0.6282
  102DECAN   C5 1005   2.687   2.624  10.870  0.2738  0.5602  0.1419
  102DECAN   C6 1006   2.602   2.517  10.942  0.2433  0.2200 -0.3850
  102DECAN   C7 1007   2.661   2.489  11.082  0.4393  0.0702 -0.4991
  102DECAN   C8 1008   2.579   2.379  11.151  0.2836  0.1830 -0.5049
  102DECAN   C9 1009   2.626   2.345  11.293 -0.5343  0.3937 -0.1747
  102DECAN  C10 1010   2.615   2.466  11.388  0.3951  0.3346  0.0278
  103DECAN   C1 1011   4.497   2.000  12.930  0.1383 -0.1056 -0.0847
  103DECAN   C2 1012   4.601   2.078  13.011 -0.1308  0.3650 -0.1883
  103DECAN   C3 1013   4.537   2.195  13.088 -0.0419  0.3483 -0.0869
  103DECAN   C4 1014   4.639   2.279  13.167  0.2804  0.2514 -0.3985
  103DECAN   C5 1015   4.710   2.199  13.278  0.3789 -0.0647 -0.6846
  103DECAN   C6 1016   4.816   2.288  13.347 -0.4461  0.2305  0.2279
  103DECAN   C7 1017   4.938   2.315  13.258 -0.4061 -0.0795  0.1857
  103DECAN   C8 1018   5.050   2.377  13.343  0.0706 -0.2717 -0.2954
  103DECAN   C9 1019   5.188   2.396  13.276 -0.0918 -0.0822 -0.5782
  103DECAN  C10 1020   5.222   2.298  13.162 -0.3188 -0.8998  0.0384
  104DECAN   C1 1021   6.638   9.603   8.031 -0.5641  0.1037 -0.5361
  104DECAN   C2 1022   6.571   9.488   8.110 -0.1095  0.1273 -0.1116
  104DECAN   C3 1023   6.655   9.364   8.145  0.1160  0.2912 -0.0639
  104DECAN   C4 1024   6.586   9.269   8.246 -0.4096  0.1827 -0.5222
  104DECAN   C5 1025   6.544   9.329   8.381 -0.0487 -0.0167 -0.3178
  104DECAN   C6 1026   6.662   9.343   8.479  0.2327 -0.2011 -0.6302
  104DECAN   C7 1027   6.743   9.218   8.519 -0.3799 -0.2498  0.5125
  104DECAN   C8 1028   6.855   9.248   8.621 -0.2690  0.3969  0.2083
  104DECAN   C9 1029   6.787   9.292   8.752  0.0063 -0.4800  0.6507
  104DECAN  C10 1030   6.699   9.418   8.750  0.1304 -0.3979 -0.0498
  105DECAN   C1 1031   4.007   1.846   4.117 -0.3085 -0.1551 -0.1033
  105DECAN   C2 1032   3.869   1.859   4.049 -0.2337  0.4487 -0.1496
  105DECAN   C3 1033   3.862   1.940   3.919  0.1033  0.5574 -0.1022
  105DECAN   C4 1034   3.715   1.948   3.873 -0.0168 -0.0834  0.1630
  105DECAN   C5 1035   3.660   1.818   3.813 -0.2969 -0.0958  0.4429
  105DECAN   C6 1036   3.515   1.805   3.761 -0.0920 -0.0928 -0.1347
  105DECAN   C7 1037   3.475   1.662   3.721 -0.1464 -0.1249  0.0321
  105DECAN   C8 1038   3.449   1.572   3.843 -0.3095  0.4438  0.4199
  105DECAN   C9 1039   3.579   1.533   3.916  0.1271  0.3528 -0.3884
  105DECAN  C10 1040   3.582   1.448   4.044  0.0398  0.3015 -0.4209
  106DECAN   C1 1041   2.334  10.820  10.003  0.0371 -0.3414 -0.1957
  106DECAN   C2 1042   2.411  10.690  10.035 -0.1244 -0.4279 -0.1517
  106DECAN   C3 1043   2.328  10.573  10.091 -0.2565 -0.0529  0.4378
  106DECAN   C4 1044   2.406  10.441  10.102  0.4893  0.3401 -0.0529
  106DECAN   C5 1045   2.454  10.383   9.967 -0.0213 -0.2807  0.0299
  106DECAN   C6 1046   2.552  10.265   9.958  0.7727  0.3942 -0.3220
  106DECAN   C7 1047   2.559  10.211   9.814  0.3446 -0.2020 -0.1257
  106DECAN   C8 1048   2.619  10.071   9.794  0.5330 -0.2759  0.8943
  106DECAN   C9 1049   2.616  10.017   9.650 -0.5738  0.3952  0.6561
  106DECAN  C10 1050   2.622   9.863   9.653  0.3649  0.4325  0.8999
  107DECAN   C1 1051   2.495  11.057  10.996  0.0374  0.1688  0.3397
  107DECAN   C2 1052   2.384  11.128  10.916  0.1490  0.2321  0.2414
  107DECAN   C3 1053   2.383   0.035  10.946  0.4946  0.2334  0.2501
  107DECAN   C4 1054   2.297   0.125  10.855  0.6451  0.0297 -0.0992
  107DECAN   C5 1055   2.151   0.089  10.885  0.5291  0.5543 -0.0235
  107DECAN   C6 1056   2.113   0.095  11.034  0.3839 -0.2334 -0.0282
  107DECAN   C7 1057   1.963   0.074  11.058  0.3145  0.3046  0.0082
  107DECAN   C8 1058   1.919   0.070  11.205  0.1074  0.4503 -0.0485
  107DECAN   C9 1059   1.778   0.013  11.233  0.3923 -0.4977 -0.5119
  107DECAN  C10 1060   1.754  11.232  11.383  0.5386  0.3305 -0.3419
  108DECAN   C1 1061   8.204  10.215   7.980 -0.3678  0.0062 -0.1259
  108DECAN   C2 1062   8.311  10.111   8.018 -0.2782  0.0967 -0.1283
  108DECAN   C3 1063   8.369  10.033   7.899  0.1828 -0.2725  0.3309
  108DECAN   C4 1064   8.260   9.947   7.831 -0.0299 -0.2827  0.6857
  108DECAN   C5 1065   8.319   9.887   7.702  0.2003  0.5625  0.3919
  108DECAN   C6 1066   8.217   9.857   7.591 -0.0273 -0.2721  0.8174
  108DECAN   C7 1067   8.282   9.783   7.473  0.3324  0.7455  0.3683
  108DECAN   C8 1068   8.188   9.719   7.369  0.7550  0.2263  0.3018
  108DECAN   C9 1069   8.256   9.705   7.231  0.4032 -0.3000  0.1807
  108DECAN  C10 1070   8.175   9.641   7.116 -0.0731  0.2121  0.2307
  109DECAN   C1 1071  10.634   5.066   9.781  0.7166  0.0903 -0.1411
  109DECAN   C2 1072  10.782   5.024   9.764  0.5940 -0.2347 -0.4180
  109DECAN   C3 1073  10.873   5.014   9.887 -0.1953  0.2865  0.2213
  109DECAN   C4 1074  11.024   5.006   9.860 -0.2475 -0.6698  0.1707
  109DECAN   C5 1075  11.095   5.026   9.996  0.3060 -0.0533 -0.2002
  109DECAN   C6 1076  11.047   4.926  10.103 -0.1364  0.3523 -0.0140
  109DECAN   C7 1077  11.146   4.932  10.221 -0.0444  0.4031 -0.0942
  109DECAN   C8 1078  11.122   5.064  10.297  0.0570  0.6118 -0.4221
  109DECAN   C9 1079  10.981   5.087  10.354 -0.2370 -0.1499 -0.8183
  109DECAN  C10 1080  10.948   5.226  10.412  0.1595 -0.4349  0.1067
  110DECAN   C1 1081   4.031   5.381   6.924 -0.0843 -0.1235 -0.0811
  110DECAN   C2 1082   3.905   5.408   6.840 -0.0082 -0.3722 -0.2791
  110DECAN   C3 1083   3.787   5.467   6.919 -0.0054 -0.0376 -0.5213
  110DECAN   C4 1084   3.655   5.467   6.839 -0.4304  0.1373  0.1708
  110DECAN   C5 1085   3.600   5.327   6.805 -0.4336  0.2286 -0.2047
  110DECAN   C6 1086   3.707   5.238   6.739 -0.4892  0.3517 -0.4622
  110DECAN   C7 1087   3.657   5.094   6.717  0.1801  0.0314  0.0829
  110DECAN   C8 1088   3.760   5.015   6.634 -0.5993 -0.7206 -0.1753
  110DECAN   C9 1089   3.720   4.875   6.582 -0.7394 -0.6327 -0.3055
  110DECAN  C10 1090   3.687   4.791   6.707  0.1841 -0.3231  0.1565
  111DECAN   C1 1091   7.251   5.160   9.663 -0.2376  0.1432 -0.2049
  111DECAN   C2 1092   7.275   5.110   9.519  0.4438  0.3825 -0.1798
  111DECAN   C3 1093   7.149   5.107   9.430  0.1183 -0.2901  0.2930
  111DECAN   C4 1094   7.179   5.084   9.281 -0.0832 -0.1874  0.2362
  111DECAN   C5 1095   7.056   5.032   9.204 -0.5622  0.1419  0.7722
  111DECAN   C6 1096   7.016   4.884   9.207  0.0769 -0.0392  0.4498
  111DECAN   C7 1097   6.873   4.879   9.150  0.3036  0.3229 -0.1627
  111DECAN   C8 1098   6.810   4.739   9.163 -0.1997  0.5672  0.0553
  111DECAN   C9 1099   6.666   4.735   9.108 -0.2301  0.0881  0.1693
  111DECAN  C10 1100   6.593   4.869   9.129  0.4663  0.4918  0.0491
  112DECAN   C1 1101   7.102  11.234   6.483 -0.4048 -0.5689 -0.1823
  112DECAN   C2 1102   7.202  11.129   6.536  0.1110  0.3691  0.7573
  112DECAN   C3 1103   7.148  11.034   6.645  0.2033 -0.2604  0.2626
  112DECAN   C4 1104   7.228  10.905   6.668  1.4584  0.6119  0.8976
  112DECAN   C5 1105   7.167  10.827   6.787  0.1917  0.5542  0.2235
  112DECAN   C6 1106   7.022  10.779   6.765  0.2133  0.6516 -0.1457
  112DECAN   C7 1107   6.974  10.693   6.647 -0.2932  0.8576 -0.0910
  112DECAN   C8 1108   6.824  10.677   6.614 -0.4431  0.4504  0.7554
  112DECAN   C9 1109   6.738  10.622   6.730 -0.3179 -0.0899  0.5908
  112DECAN  C10 1110   6.591  10.657   6.705 -0.1040  0.2596 -0.2273
  113DECAN   C1 1111   8.282   6.536  12.639  0.2514 -0.5063 -0.0580
  113DECAN   C2 1112   8.336   6.417  12.720  0.1863 -0.4091  0.1279
  113DECAN   C3 1113   8.488   6.410  12.740  0.2077 -0.2934  0.0069
  113DECAN   C4 1114   8.549   6.275  12.781  0.4942 -0.2959 -0.4223
  113DECAN   C5 1115   8.703   6.286  12.788  0.4688 -0.2709  0.0635
  113DECAN   C6 1116   8.762   6.375  12.900  0.2731  0.2275 -0.2260
  113DECAN   C7 1117   8.732   6.525  12.880  0.1907  0.1543 -0.6773
  113DECAN   C8 1118   8.789   6.629  12.978 -0.2962 -0.0870 -0.1349
  113DECAN   C9 1119   8.764   6.777  12.947  0.5253  0.1190  0.1673
  113DECAN  C10 1120   8.800   6.875  13.060 -0.1046  0.3586  0.1668
  114DECAN   C1 1121   8.177   9.824  14.621  0.1896  0.1761 -0.1533
  114DECAN   C2 1122   8.162   9.820  14.467  0.4009 -0.2301 -0.1652
  114DECAN   C3 1123   8.066   9.717  14.404  0.1797  0.0762 -0.3308
  114DECAN   C4 1124   7.985   9.758  14.280  0.2960 -0.0857 -0.4614
  114DECAN   C5 1125   7.903   9.652  14.204 -0.2136 -0.2228  0.2641
  114DECAN   C6 1126   7.786   9.583  14.276 -0.5921  0.1331 -0.0018
  114DECAN   C7 1127   7.722   9.480  14.181 -0.1969 -0.2796  0.1728
  114DECAN   C8 1128   7.614   9.409  14.265  0.3922 -0.7065  0.5787
  114DECAN   C9 1129   7.677   9.326  14.378  0.2590 -0.4261  0.8599
  114DECAN  C10 1130   7.595   9.206  14.428  0.1750 -0.6541  0.1717
  115DECAN   C1 1131   6.687   5.958  12.575 -0.1239  0.4191  0.1859
  115DECAN   C2 1132   6.726   5.894  12.709 -0.5461 -0.7218 -0.2146
  115DECAN   C3 1133   6.657   5.986  12.812 -0.0688 -0.2554 -0.3046
  115DECAN   C4 1134   6.697   5.948  12.955  0.0395  0.1640 -0.2240
  115DECAN   C5 1135   6.663   5.803  12.992  0.3095  0.1717  0.0637
  115DECAN   C6 1136   6.519   5.758  12.958  0.3563 -0.0008  0.0904
  115DECAN   C7 1137   6.493   5.608  12.979  0.4003 -0.0327 -0.0858
  115DECAN   C8 1138   6.357   5.545  12.943  0.0435  0.2417  0.7591
  115DECAN   C9 1139   6.364   5.392  12.957 -0.1564  0.1590 -0.0260
  115DECAN  C10 1140   6.438   5.362  13.088 -0.4119 -0.2716  0.0193
  116DECAN   C1 1141   8.240  10.674  10.047 -0.2751  0.1324 -0.5587
  116DECAN   C2 1142   8.351  10.603   9.967 -0.1742  0.2361 -0.5090
  116DECAN   C3 1143   8.389  10.657   9.828 -0.4562  0.8190 -0.3639
  116DECAN   C4 1144   8.503  10.761   9.817 -0.3826  0.7930  0.1326
  116DECAN   C5 1145   8.542  10.813   9.677  0.2659 -0.2153 -0.0722
  116DECAN   C6 1146   8.624  10.943   9.691  0.4608 -0.3474  0.0364
  116DECAN   C7 1147   8.702  10.995   9.569  0.3241 -0.2147  0.0049
  116DECAN   C8 1148   8.729  11.147   9.570 -0.2537 -0.1095  0.0052
  116DECAN   C9 1149   8.786  11.190   9.434 -0.4307 -0.0571 -0.0530
  116DECAN  C10 1150   8.781   0.100   9.422  0.0395  0.0096  0.5002
  117DECAN   C1 1151   4.950  10.212  12.641  0.3556  0.1362 -0.1341
  117DECAN   C2 1152   4.997  10.084  12.712  0.2670 -0.0505 -0.4111
  117DECAN   C3 1153   4.885  10.023  12.797 -0.1882  0.7279 -0.4459
  117DECAN   C4 1154   4.771   9.957  12.717 -0.3396  0.1940  0.1973
  117DECAN   C5 1155   4.650   9.914  12.802 -0.2863 -0.3845 -0.0160
  117DECAN   C6 1156   4.558   9.827  12.715 -0.5247  0.0405 -0.1855
  117DECAN   C7 1157   4.433   9.770  12.783 -0.0625 -0.3144  0.3678
  117DECAN   C8 1158   4.471   9.638  12.854 -0.3308 -0.3085  0.5245
  117DECAN   C9 1159   4.566   9.667  12.971 -0.1633  0.0149  0.3110
  117DECAN  C10 1160   4.613   9.538  13.040 -0.2821 -0.3539 -0.2923
  118DECAN   C1 1161   3.032   1.783  10.354 -0.0588  0.2517  0.2021
  118DECAN   C2 1162   2.889   1.833  10.381 -0.1161  0.4041 -0.3780
  118DECAN   C3 1163   2.796   1.829  10.258 -0.3437  0.0869 -0.1982
  118DECAN   C4 1164   2.843   1.921  10.144 -0.2278  0.3658  0.0739
  118DECAN   C5 1165   2.735   1.916  10.034 -0.1184  0.0644 -0.0221
  118DECAN   C6 1166   2.779   1.983   9.903  0.2918 -0.0217  0.0723
  118DECAN   C7 1167   2.920   1.932   9.867 -0.0202 -0.6674 -0.2302
  118DECAN   C8 1168   2.980   1.921   9.726 -0.2506 -1.0824 -0.2991
  118DECAN   C9 1169   3.121   1.860   9.736  0.1711 -0.0700  0.1152
  118DECAN  C10 1170   3.192   1.843   9.600 -0.8109 -0.0237 -0.4130
  119DECAN   C1 1171   1.403   3.072  11.186  0.0688 -0.1907 -0.7049
  119DECAN   C2 1172   1.411   3.225  11.173  0.0752 -0.1517 -0.2398
  119DECAN   C3 1173   1.424   3.280  11.030 -0.4580 -0.2131 -0.3119
  119DECAN   C4 1174   1.555   3.241  10.960 -0.2575 -0.2024  0.0562
  119DECAN   C5 1175   1.554   3.098  10.902  0.0591 -0.1966  0.0360
  119DECAN   C6 1176   1.682   3.015  10.928  0.2989  0.0957 -0.2072
  119DECAN   C7 1177   1.689   2.893  10.835  0.4737 -0.0952  0.0559
  119DECAN   C8 1178   1.821   2.813  10.834  0.8394  0.5057 -0.0773
  119DECAN   C9 1179   1.856   2.732  10.960 -0.2882  0.4925  0.2363
  119DECAN  C10 1180   1.745   2.631  10.995  0.0413  0.0759  0.0747
  120DECAN   C1 1181   6.475   6.715  11.098  0.1420 -0.2461  0.3274
  120DECAN   C2 1182   6.491   6.852  11.167  0.3835 -0.2976  0.3763
  120DECAN   C3 1183   6.596   6.945  11.103 -0.5675  0.3260 -0.3100
  120DECAN   C4 1184   6.625   7.064  11.196 -0.2953 -0.0138  0.0450
  120DECAN   C5 1185   6.715   7.175  11.139 -0.3198  0.0543  0.1380
  120DECAN   C6 1186   6.745   7.292  11.234  0.4092 -0.4502  0.5353
  120DECAN   C7 1187   6.628   7.373  11.291  0.1107 -0.6809  0.2578
  120DECAN   C8 1188   6.675   7.486  11.385 -0.0906  0.1879 -0.6755
  120DECAN   C9 1189   6.572   7.565  11.467  0.0711 -0.3095  0.0129
  120DECAN  C10 1190   6.641   7.649  11.576 -0.0575 -0.6230  0.3352
  121DECAN   C1 1191   0.845   1.979   8.901  0.7168 -0.0328 -0.2783
  121DECAN   C2 1192   0.883   2.114   8.964 -0.5674  0.1050  0.2232
  121DECAN   C3 1193   0.994   2.174   8.876 -0.3107 -0.4774  0.1481
  121DECAN   C4 1194   1.119   2.085   8.862  0.2327  0.3141 -0.0916
  121DECAN   C5 1195   1.234   2.143   8.777  0.0330  0.1353 -0.4842
  121DECAN   C6 1196   1.363   2.059   8.766  0.1611  0.3121 -0.3253
  121DECAN   C7 1197   1.343   1.959   8.652 -0.5737 -0.1969  0.2431
  121DECAN   C8 1198   1.449   1.848   8.661  0.4141  0.7324  0.1894
  121DECAN   C9 1199   1.455   1.764   8.532  0.3723  0.7890  0.1498
  121DECAN  C10 1200   1.570   1.661   8.531  0.3205  0.7296 -0.3582
  122DECAN   C1 1201   4.149   5.625   8.072 -0.3085 -0.2044  0.1957
  122DECAN   C2 1202   4.101   5.701   8.197  0.1670  0.3333  0.0575
  122DECAN   C3 1203   4.047   5.844   8.190 -0.5159  0.0613 -0.2264
  122DECAN   C4 1204   4.150   5.941   8.129 -0.1649 -0.1065  0.1014
  122DECAN   C5 1205   4.242   5.882   8.021  0.2570  0.1330  0.3246
  122DECAN   C6 1206   4.371   5.963   7.999  0.1342  0.2078 -0.1403
  122DECAN   C7 1207   4.447   5.906   7.878 -0.0722 -0.2946 -0.0371
  122DECAN   C8 1208   4.555   6.005   7.829 -0.1164 -0.1547  0.1471
  122DECAN   C9 1209   4.495   6.135   7.772  0.2197 -0.1044 -0.0922
  122DECAN  C10 1210   4.599   6.236   7.720  0.2256  0.4289  0.9139
  123DECAN   C1 1211   3.001   3.266   9.587 -0.1814  0.0991  0.4742
  123DECAN   C2 1212   3.046   3.413   9.592 -0.0941  0.1110 -0.4274
  123DECAN   C3 1213   2.938   3.499   9.660  0.2579  0.1005  0.1546
  123DECAN   C4 1214   2.975   3.648   9.662 -0.5316  0.3126 -0.4962
  123DECAN   C5 1215   2.847   3.731   9.686 -0.5733  0.3738 -0.9220
  123DECAN   C6 1216   2.854   3.885   9.685 -0.3068  0.3775  0.1652
  123DECAN   C7 1217   2.714   3.948   9.673 -0.4645  0.0461  0.2619
  123DECAN   C8 1218   2.632   3.908   9.549 -0.6789  0.1877  0.3577
  123DECAN   C9 1219   2.487   3.961   9.550 -0.7021  0.1315  0.0180
  123DECAN  C10 1220   2.471   4.114   9.539 -0.1822  0.2031  0.1978
  124DECAN   C1 1221   5.067   7.266   8.126  0.2536 -0.0723 -0.1505
  124DECAN   C2 1222   5.153   7.231   8.003 -0.2856 -0.5217 -0.4017
  124DECAN   C3 1223   5.088   7.280   7.872 -0.1850  0.2092 -0.1804
  124DECAN   C4 1224   4.935   7.262   7.866 -0.1011 -0.4339 -0.4958
  124DECAN   C5 1225   4.890   7.293   7.722 -0.7348  0.3494 -0.1396
  124DECAN   C6 1226   4.920   7.439   7.684  0.5523  0.1062 -0.1126
  124DECAN   C7 1227   4.831   7.489   7.569  0.6848 -0.0873 -0.2980
  124DECAN   C8 1228   4.846   7.640   7.543 -0.1602  0.0076 -0.2611
  124DECAN   C9 1229   4.758   7.699   7.431  0.0283 -0.0246 -0.4286
  124DECAN  C10 1230   4.770   7.851   7.416  0.2800 -0.0254 -0.2478
  125DECAN   C1 1231   7.672   1.540   6.383 -0.2564  0.0987  0.0056
  125DECAN   C2 1232   7.571   1.428   6.412 -0.4486  0.2899  0.0732
  125DECAN   C3 1233   7.463   1.404   6.305  0.0822 -0.2583 -0.3446
  125DECAN   C4 1234   7.387   1.271   6.320 -0.0732 -0.1463 -0.1298
  125DECAN   C5 1235   7.286   1.255   6.435 -0.4303  0.4589 -0.3543
  125DECAN   C6 1236   7.210   1.122   6.448  0.1850  0.1659  0.2925
  125DECAN   C7 1237   7.103   1.112   6.558 -0.2374 -0.1809 -0.1455
  125DECAN   C8 1238   6.970   1.181   6.523 -0.4424 -0.5247 -0.0474
  125DECAN   C9 1239   6.853   1.184   6.624 -0.0011  0.3548  0.4408
  125DECAN  C10 1240   6.724   1.253   6.578  0.3417  0.1784 -0.8131
  126DECAN   C1 1241   7.637   2.848  13.232 -0.0279 -0.5092 -0.6074
  126DECAN   C2 1242   7.622   2.955  13.122 -0.5122  0.2409  0.1748
  126DECAN   C3 1243   7.578   3.097  13.161  0.0767  0.5926 -0.4140
  126DECAN   C4 1244   7.533   3.191  13.048 -0.2750  0.3371 -0.4875
  126DECAN   C5 1245   7.484   3.329  13.097 -0.6497 -0.0418  0.2234
  126DECAN   C6 1246   7.457   3.421  12.976  0.8506 -0.1388 -0.2068
  126DECAN   C7 1247   7.491   3.565  13.019  0.4392 -0.1145  0.0358
  126DECAN   C8 1248   7.451   3.664  12.909  0.0542 -0.1142  0.1726
  126DECAN   C9 1249   7.300   3.666  12.880  0.0142 -0.2475  0.3734
  126DECAN  C10 1250   7.245   3.546  12.801  0.2621 -0.2435  0.1929
  127DECAN   C1 1251   8.296  11.219  11.897  0.1537  0.0902 -0.7870
  127DECAN   C2 1252   8.206   0.005  12.019  1.0358  0.1005 -0.1255
  127DECAN   C3 1253   8.111  11.132  12.052  0.5193  0.4596 -0.3286
  127DECAN   C4 1254   8.022  11.157  12.175 -0.2003 -0.5063 -0.6417
  127DECAN   C5 1255   7.925  11.042  12.209  0.3543 -0.8297 -0.1366
  127DECAN   C6 1256   7.849  10.995  12.084 -0.3721 -0.3847  0.1336
  127DECAN   C7 1257   7.776  11.092  11.989  0.6739  0.5296  0.2513
  127DECAN   C8 1258   7.733  11.039  11.851  0.4829  0.1343  0.4632
  127DECAN   C9 1259   7.684  11.155  11.762 -0.1091 -0.4239  0.0491
  127DECAN  C10 1260   7.621  11.134  11.623 -0.0903 -0.3021  0.0225
  128DECAN   C1 1261   6.429   5.407   7.735 -0.2638  0.0713  0.3885
  128DECAN   C2 1262   6.347   5.283   7.773  0.0275 -0.0493  0.6202
  128DECAN   C3 1263   6.208   5.329   7.820 -0.2292 -0.0333 -0.1413
  128DECAN   C4 1264   6.106   5.215   7.841 -0.3043 -0.0054 -0.3642
  128DECAN   C5 1265   5.957   5.235   7.875 -0.1849 -0.0072  0.1645
  128DECAN   C6 1266   5.865   5.274   7.758  0.0876 -0.5575 -0.2374
  128DECAN   C7 1267   5.730   5.330   7.806  0.1388 -0.1914 -0.5127
  128DECAN   C8 1268   5.627   5.364   7.697 -0.2485  0.3314  0.0038
  128DECAN   C9 1269   5.687   5.471   7.603  0.2593  0.3405  0.3352
  128DECAN  C10 1270   5.809   5.421   7.524 -0.4236  0.3804 -0.7674
  129DECAN   C1 1271   3.660   0.534  10.038  0.0343 -0.2640  0.1918
  129DECAN   C2 1272   3.563   0.644   9.992  0.1574  0.0237  0.6095
  129DECAN   C3 1273   3.606   0.790  10.014  0.7561 -0.0198 -0.2185
  129DECAN   C4 1274   3.522   0.880   9.921  0.4736  0.2250  0.2693
  129DECAN   C5 1275   3.589   0.920   9.789  0.0013  0.2802  0.0472
  129DECAN   C6 1276   3.611   0.797   9.698  0.1651  0.6205 -0.3760
  129DECAN   C7 1277   3.679   0.825   9.562  0.4883  0.5019 -0.2411
  129DECAN   C8 1278   3.658   0.715   9.457 -0.0779 -0.1517  0.5444
  129DECAN   C9 1279   3.695   0.573   9.506  0.1435 -0.1877  0.2710
  129DECAN  C10 1280   3.847   0.548   9.510  0.0664 -0.6797  0.1420
  130DECAN   C1 1281   7.432   4.920   7.096  0.0012 -0.7280  0.2353
  130DECAN   C2 1282   7.557   4.837   7.131  0.3805 -0.3438 -0.2009
  130DECAN   C3 1283   7.654   4.795   7.018  0.5763  1.0256 -0.5618
  130DECAN   C4 1284   7.765   4.701   7.067 -0.4430  0.0991  0.0187
  130DECAN   C5 1285   7.871   4.675   6.958 -0.1468 -0.4112  0.4192
  130DECAN   C6 1286   7.823   4.604   6.830  0.0726  0.2760 -0.0514
  130DECAN   C7 1287   7.932   4.568   6.728  0.3119  0.2916  0.1967
  130DECAN   C8 1288   8.040   4.467   6.771 -0.3004 -0.3412  0.2532
  130DECAN   C9 1289   8.141   4.440   6.659 -0.4816  0.3326 -0.0753
  130DECAN  C10 1290   8.073   4.382   6.533  0.5620  0.3954 -0.6802
  131DECAN   C1 1291   5.093   2.617   5.721 -0.2791  0.2788 -0.2843
  131DECAN   C2 1292   5.176   2.513   5.800 -0.1592  0.2549 -0.4415
  131DECAN   C3 1293   5.129   2.495   5.945 -0.0182 -0.2366 -0.4555
  131DECAN   C4 1294   5.217   2.386   6.009  0.4939  0.5982  0.2903
  131DECAN   C5 1295   5.179   2.354   6.154  0.0247 -0.1864 -0.0004
  131DECAN   C6 1296   5.212   2.214   6.212 -0.3826 -0.3493 -0.1605
  131DECAN   C7 1297   5.359   2.216   6.255 -0.5772  0.4879  0.4978
  131DECAN   C8 1298   5.404   2.075   6.298  0.5411  0.6646 -0.0455
  131DECAN   C9 1299   5.328   2.022   6.421  0.0431  0.1913 -0.5517
  131DECAN  C10 1300   5.325   1.868   6.421  0.2573  0.1830 -0.0346
  132DECAN   C1 1301   5.846   1.403  14.752  0.2113 -0.5801  0.0489
  132DECAN   C2 1302   5.970   1.491  14.725  0.3724 -0.7523  0.2174
  132DECAN   C3 1303   5.948   1.631  14.787 -0.1910 -0.8065  0.1508
  132DECAN   C4 1304   5.955   1.640  14.940  0.2020  0.0572  0.0850
  132DECAN   C5 1305   5.932   1.778  15.006  0.3231  0.3022 -0.3795
  132DECAN   C6 1306   6.028   1.888  14.958  0.4836  0.4403  0.2507
  132DECAN   C7 1307   6.030   2.018  15.039  0.5706  0.7280 -0.2096
  132DECAN   C8 1308   5.900   2.097  15.065  0.2580  0.2529 -0.3178
  132DECAN   C9 1309   5.929   2.247  15.087  0.1181  0.3373 -0.6951
  132DECAN  C10 1310   5.800   2.325  15.121 -0.0739 -0.3261  0.1395
  133DECAN   C1 1311   6.581   6.778   6.817  0.4737 -0.0447  0.6444
  133DECAN   C2 1312   6.479   6.874   6.880  0.3447  0.1406  0.1573
  133DECAN   C3 1313   6.433   6.822   7.018  0.1782  0.3521  0.1824
  133DECAN   C4 1314   6.353   6.925   7.100  0.2984  0.3828  0.2616
  133DECAN   C5 1315   6.218   6.955   7.031 -0.1281 -0.6403  0.6171
  133DECAN   C6 1316   6.235   7.053   6.913 -0.5196 -0.3516  0.7964
  133DECAN   C7 1317   6.112   7.068   6.823  0.1283 -0.1942 -0.0783
  133DECAN   C8 1318   6.135   7.116   6.678 -0.0689  0.5609  0.1357
  133DECAN   C9 1319   6.008   7.129   6.593 -0.0284 -0.2201 -0.0534
  133DECAN  C10 1320   5.908   7.226   6.658  0.0704 -0.5166  0.5453
  134DECAN   C1 1321  10.279  10.715  13.559 -0.0543 -0.1297  0.3219
  134DECAN   C2 1322  10.201  10.625  13.461 -0.3117  0.0644  0.3455
  134DECAN   C3 1323  10.048  10.618  13.472 -0.3580  0.5143 -0.0120
  134DECAN   C4 1324   9.999  10.574  13.611  0.2680  0.0130  0.0522
  134DECAN   C5 1325  10.027  10.423  13.626  0.0657  0.0152  0.4567
  134DECAN   C6 1326   9.920  10.335  13.561  0.3923  0.1060 -0.2136
  134DECAN   C7 1327   9.957  10.185  13.569 -0.6432 -0.1183  0.6918
  134DECAN   C8 1328   9.862  10.103  13.480 -0.2961 -0.2245  0.4210
  134DECAN   C9 1329   9.893   9.952  13.484 -0.2191 -0.2138  0.2550
  134DECAN  C10 1330  10.027   9.910  13.421 -0.1456 -0.2154  0.4134
  135DECAN   C1 1331   5.339   5.303  10.433 -0.1222 -0.1822 -0.2402
  135DECAN   C2 1332   5.483   5.270  10.388 -0.1441 -0.5877 -0.0174
  135DECAN   C3 1333   5.477   5.195  10.253 -0.4413 -0.1812 -0.2306
  135DECAN   C4 1334   5.610   5.201  10.176 -0.1873  0.2686  0.2339
  135DECAN   C5 1335   5.613   5.163  10.027 -0.2899  0.1864  0.2533
  135DECAN   C6 1336   5.750   5.158   9.956 -0.5313 -0.9377 -0.1624
  135DECAN   C7 1337   5.737   5.092   9.818  0.3638 -1.0366 -0.2097
  135DECAN   C8 1338   5.861   5.119   9.731  0.6959 -0.3107  0.4727
  135DECAN   C9 1339   5.891   5.001   9.637 -0.1644  0.2459 -0.5257
  135DECAN  C10 1340   5.991   5.049   9.530  0.0410  0.5390 -0.2043
  136DECAN   C1 1341   4.315   7.157   3.847 -0.2299 -0.1109 -0.7056
  136DECAN   C2 1342   4.308   7.282   3.937 -0.2821 -0.3329 -0.3998
  136DECAN   C3 1343   4.318   7.415   3.862 -0.3681 -0.2789 -0.3157
  136DECAN   C4 1344   4.268   7.541   3.934  0.2676 -0.3551  0.2667
  136DECAN   C5 1345   4.300   7.670   3.856 -0.1550 -0.3097  0.1684
  136DECAN   C6 1346   4.240   7.798   3.917  0.8782  0.0357  0.4666
  136DECAN   C7 1347   4.286   7.918   3.831 -0.0948 -0.2210 -0.4279
  136DECAN   C8 1348   4.243   8.057   3.882  0.5010 -0.1554 -0.0959
  136DECAN   C9 1349   4.308   8.178   3.814 -0.1187  0.3785  0.2466
  136DECAN  C10 1350   4.218   8.302   3.805 -0.3405  0.2256  0.3609
  137DECAN   C1 1351   6.709   9.575  10.937 -0.0246  0.3425 -0.1212
  137DECAN   C2 1352   6.669   9.442  10.871  0.1645  0.1158  0.2231
  137DECAN   C3 1353   6.669   9.440  10.717 -0.3099 -0.0134  0.2246
  137DECAN   C4 1354   6.644   9.301  10.655 -0.4336  0.0139  0.2134
  137DECAN   C5 1355   6.740   9.199  10.718 -0.4230 -0.2916 -0.2946
  137DECAN   C6 1356   6.719   9.050  10.685 -0.1228 -0.4490  0.2068
  137DECAN   C7 1357   6.744   9.028  10.534  0.5877  0.1530  0.2330
  137DECAN   C8 1358   6.736   8.880  10.493  0.8175  0.0997  0.3758
  137DECAN   C9 1359   6.769   8.840  10.348  0.3486 -0.2913  0.3723
  137DECAN  C10 1360   6.780   8.687  10.332  0.6598 -0.2141 -0.1724
  138DECAN   C1 1361   4.447   2.692   9.032  0.2494  0.1530 -0.0576
  138DECAN   C2 1362   4.517   2.737   9.162  0.3110 -0.3299  0.0750
  138DECAN   C3 1363   4.463   2.678   9.293 -0.7409 -0.0985 -0.2400
  138DECAN   C4 1364   4.492   2.758   9.422 -0.8578 -0.2296 -0.1314
  138DECAN   C5 1365   4.435   2.688   9.546  0.0375 -0.1162  0.3523
  138DECAN   C6 1366   4.478   2.766   9.672 -0.6147  0.3091  0.3156
  138DECAN   C7 1367   4.402   2.729   9.800 -0.5154 -0.0567  0.2681
  138DECAN   C8 1368   4.431   2.804   9.932 -0.1575  0.5666 -0.1616
  138DECAN   C9 1369   4.576   2.787   9.980 -0.1932  0.1995 -0.1822
  138DECAN  C10 1370   4.680   2.842   9.881 -0.2566 -0.0100 -0.3648
  139DECAN   C1 1371   5.189   4.813   7.234 -0.2997 -0.6127  0.3051
  139DECAN   C2 1372   5.192   4.955   7.176 -0.4714 -0.5505  0.4471
  139DECAN   C3 1373   5.243   5.059   7.278 -0.0544 -0.1844 -0.1258
  139DECAN   C4 1374   5.390   5.024   7.305 -0.1974 -0.4844  0.2829
  139DECAN   C5 1375   5.474   5.132   7.376 -0.2749  0.2009 -0.6349
  139DECAN   C6 1376   5.623   5.095   7.385 -0.2745  0.4855  0.8139
  139DECAN   C7 1377   5.650   4.956   7.445  0.5188  0.4824  0.4617
  139DECAN   C8 1378   5.782   4.894   7.395  0.1966 -0.3113  0.5713
  139DECAN   C9 1379   5.905   4.965   7.456 -0.0568  0.3816  0.2905
  139DECAN  C10 1380   5.933   4.910   7.597 -0.1696  0.4882  0.3548
  140DECAN   C1 1381   3.929  10.878   9.449 -0.3806 -0.3177  0.1077
  140DECAN   C2 1382   3.952  11.006   9.532  0.0480 -0.5896  0.4102
  140DECAN   C3 1383   3.847  11.119   9.537  0.8700  0.2311 -0.5865
  140DECAN   C4 1384   3.810  11.170   9.396 -0.3486  0.2393 -0.2694
  140DECAN   C5 1385   3.724   0.053   9.401 -0.0057  0.4532  0.2920
  140DECAN   C6 1386   3.687   0.087   9.255  0.9016 -0.8065 -0.2464
  140DECAN   C7 1387   3.610  11.220   9.182  0.0086 -0.2447 -0.1696
  140DECAN   C8 1388   3.698  11.097   9.154  0.8425  0.2755  0.1105
  140DECAN   C9 1389   3.611  10.989   9.086 -0.2026  1.0131  0.2457
  140DECAN  C10 1390   3.553  11.025   8.948 -0.1889 -0.1437 -0.0732
  141DECAN   C1 1391   1.780   6.333   8.278 -0.4221  0.6100  0.6546
  141DECAN   C2 1392   1.654   6.366   8.360 -0.3340  0.7724  0.7251
  141DECAN   C3 1393   1.654   6.284   8.491  0.1881  0.4961  0.5550
  141DECAN   C4 1394   1.544   6.327   8.589 -0.8339  0.3007 -0.4905
  141DECAN   C5 1395   1.559   6.476   8.626 -0.1060  0.0586  0.2108
  141DECAN   C6 1396   1.457   6.540   8.721 -0.4290 -0.1683  0.0188
  141DECAN   C7 1397   1.460   6.692   8.692 -0.2349 -0.2211 -0.2452
  141DECAN   C8 1398   1.379   6.787   8.782  0.8843  0.2595  0.2691
  141DECAN   C9 1399   1.394   6.937   8.749 -0.0342  0.2986 -0.0050
  141DECAN  C10 1400   1.294   6.994   8.647 -0.3067  0.7511  0.5127
  142DECAN   C1 1401   4.991   4.853  14.709  0.1197 -0.8188  0.0603
  142DECAN   C2 1402   4.967   4.884  14.858  0.3850  0.6711 -0.1964
  142DECAN   C3 1403   5.008   5.027  14.899  0.2686  0.4955  0.5431
  142DECAN   C4 1404   4.982   5.061  15.047  0.1303  0.3299  0.5560
  142DECAN   C5 1405   4.836   5.093  15.084  0.1045  0.1835  0.5834
  142DECAN   C6 1406   4.727   4.997  15.032  0.3560  0.1212  0.1663
  142DECAN   C7 1407   4.592   5.028  15.098  0.2075 -0.0841 -0.0431
  142DECAN   C8 1408   4.488   4.926  15.049 -0.2211  0.0846  0.5021
  142DECAN   C9 1409   4.544   4.783  15.067 -0.1329 -0.0374 -0.6748
  142DECAN  C10 1410   4.434   4.681  15.030  0.0661 -0.4575 -0.1132
  143DECAN   C1 1411   5.374  10.153   7.227  0.1757 -0.2529 -0.1941
  143DECAN   C2 1412   5.404  10.148   7.076  0.2795 -0.5521 -0.1627
  143DECAN   C3 1413   5.548  10.185   7.038  0.0610  0.2010 -0.2579
  143DECAN   C4 1414   5.591  10.128   6.902  0.4678 -0.8248  0.2958
  143DECAN   C5 1415   5.731  10.170   6.854 -0.0093  0.5044  0.0324
  143DECAN   C6 1416   5.842  10.112   6.945  0.1084  0.3848 -0.1856
  143DECAN   C7 1417   5.975  10.169   6.893  0.5533 -0.3063  0.1865
  143DECAN   C8 1418   6.029  10.093   6.771  0.0975  0.0142 -0.2162
  143DECAN   C9 1419   6.154  10.154   6.706  0.1550 -0.1537 -0.2640
  143DECAN  C10 1420   6.208  10.070   6.589  0.3070  0.0827 -0.3647
  144DECAN   C1 1421   7.158   2.849  14.849 -0.2676 -0.3974  0.2129
  144DECAN   C2 1422   7.162   2.732  14.749  0.0922  0.1562 -0.4283
  144DECAN   C3 1423   7.037   2.643  14.766  0.3628 -0.1138  0.1813
  144DECAN   C4 1424   7.049   2.504  14.701  0.1172 -0.4148  0.7768
  144DECAN   C5 1425   6.912   2.462  14.644  0.3159  0.3153 -0.2837
  144DECAN   C6 1426   6.908   2.322  14.579  0.1175  0.4182 -0.4917
  144DECAN   C7 1427   6.764   2.292  14.532  0.1483 -0.4496 -0.0517
  144DECAN   C8 1428   6.742   2.153  14.470  0.4690 -0.3286 -0.4461
  144DECAN   C9 1429   6.597   2.114  14.437  0.3642 -0.2199 -0.1133
  144DECAN  C10 1430   6.553   2.140  14.292  0.1070 -0.6327 -0.1124
  145DECAN   C1 1431   7.635   7.659   8.605 -0.1566  0.6691 -0.7544
  145DECAN   C2 1432   7.731   7.757   8.675  0.2116  0.1586 -0.5404
  145DECAN   C3 1433   7.805   7.697   8.796 -0.3267  0.2769 -0.1532
  145DECAN   C4 1434   7.696   7.641   8.890 -0.1898 -0.8330 -0.6460
  145DECAN   C5 1435   7.745   7.560   9.012  0.0163 -0.0887 -0.2286
  145DECAN   C6 1436   7.633   7.509   9.104 -0.1196 -0.0337 -0.3637
  145DECAN   C7 1437   7.520   7.417   9.054  0.0323 -0.4909  0.1323
  145DECAN   C8 1438   7.419   7.378   9.164 -0.5465  0.0472 -0.2008
  145DECAN   C9 1439   7.308   7.281   9.120  0.0056 -0.3251 -0.7691
  145DECAN  C10 1440   7.208   7.348   9.024 -0.3291  0.1451 -0.0958
  146DECAN   C1 1441   9.300   8.029  10.110  0.1032  0.3420  0.2083
  146DECAN   C2 1442   9.235   8.156  10.052 -0.2341  0.1682  0.2012
  146DECAN   C3 1443   9.314   8.231   9.943 -0.2225 -0.3352 -0.1401
  146DECAN   C4 1444   9.231   8.346   9.884  0.7033  0.1603 -0.4907
  146DECAN   C5 1445   9.175   8.442   9.991  0.1007 -0.8401  0.0973
  146DECAN   C6 1446   9.072   8.537   9.929  0.8558 -0.2587 -0.2843
  146DECAN   C7 1447   9.133   8.626   9.820  0.2291  0.4386 -0.0804
  146DECAN   C8 1448   9.028   8.675   9.719 -0.0232  0.0243 -0.0219
  146DECAN   C9 1449   9.087   8.759   9.604 -0.2086  0.1897  0.0018
  146DECAN  C10 1450   8.988   8.834   9.514  0.1311  0.4316 -0.1730
  147DECAN   C1 1451   2.881   7.988  13.305  0.2229  0.5404 -0.4511
  147DECAN   C2 1452   2.755   8.010  13.389  0.1598  0.1799 -0.4491
  147DECAN   C3 1453   2.772   8.114  13.501 -0.2881 -0.1421 -0.0730
  147DECAN   C4 1454   2.815   8.259  13.470 -0.0509 -0.1463  0.2312
  147DECAN   C5 1455   2.798   8.359  13.586  0.3560  0.0906  0.0895
  147DECAN   C6 1456   2.885   8.328  13.709  0.3552 -0.2007  0.0177
  147DECAN   C7 1457   2.846   8.413  13.831  0.0989 -0.1867 -0.0752
  147DECAN   C8 1458   2.925   8.357  13.951  0.5090 -0.5761 -0.5199
  147DECAN   C9 1459   3.068   8.321  13.909  0.8961 -0.2356  0.4693
  147DECAN  C10 1460   3.170   8.434  13.885 -0.0198  0.5772  0.3449
  148DECAN   C1 1461  10.552   2.219  12.326 -0.2382 -0.1799 -0.6258
  148DECAN   C2 1462  10.422   2.181  12.399  0.1517 -0.3404 -0.0112
  148DECAN   C3 1463  10.398   2.269  12.523  0.0465  0.2016 -0.4145
  148DECAN   C4 1464  10.256   2.259  12.583  0.2089  0.0359 -0.0530
  148DECAN   C5 1465  10.236   2.335  12.715 -0.3605 -0.5790  0.2210
  148DECAN   C6 1466  10.105   2.308  12.790 -0.4177 -0.0631  0.3140
  148DECAN   C7 1467  10.081   2.401  12.911  0.2377  0.5032  0.0104
  148DECAN   C8 1468   9.950   2.365  12.983  0.4037  0.1735  0.1498
  148DECAN   C9 1469   9.907   2.482  13.074  0.2468 -0.3922  0.8103
  148DECAN  C10 1470   9.761   2.459  13.118 -0.1600 -0.4957 -0.5611
  149DECAN   C1 1471   2.173   0.134   9.673 -0.1318  0.0694 -0.4701
  149DECAN   C2 1472   2.215   0.275   9.628  0.3811  0.2410  0.5140
  149DECAN   C3 1473   2.366   0.303   9.642  0.3979 -0.0341  0.8994
  149DECAN   C4 1474   2.426   0.431   9.582  0.0740  0.0220  0.6892
  149DECAN   C5 1475   2.579   0.422   9.600  0.2039  0.4240 -0.1536
  149DECAN   C6 1476   2.625   0.420   9.747 -0.2273  0.1158 -0.0181
  149DECAN   C7 1477   2.772   0.374   9.760 -0.3330 -0.3339 -0.3843
  149DECAN   C8 1478   2.827   0.342   9.900  0.0470 -0.0347 -0.4641
  149DECAN   C9 1479   2.962   0.268   9.900  0.1735  0.1709  0.5059
  149DECAN  C10 1480   3.010   0.236  10.042  0.4670 -0.4179  0.2788
  150DECAN   C1 1481  10.558   9.951   8.426  0.0405 -0.1172  0.0941
  150DECAN   C2 1482  10.624   9.824   8.484  0.0278 -0.0966  0.1531
  150DECAN   C3 1483  10.563   9.695   8.427 -0.2408 -0.1275  0.4996
  150DECAN   C4 1484  10.630   9.560   8.461  0.0020 -0.2452 -0.4230
  150DECAN   C5 1485  10.641   9.543   8.613 -0.6775 -0.8052 -0.4332
  150DECAN   C6 1486  10.732   9.426   8.655 -0.0845 -0.2379 -0.1165
  150DECAN   C7 1487  10.722   9.381   8.802 -0.1136 -0.2260 -0.1149
  150DECAN   C8 1488  10.789   9.247   8.839 -0.2310 -0.1785  0.2727
  150DECAN   C9 1489  10.776   9.190   8.982 -0.2004 -0.8081  0.0259
  150DECAN  C10 1490  10.627   9.172   9.018 -0.2907 -0.3525 -0.1126
  151DECAN   C1 1491   2.586   9.396   4.143 -0.4543  0.2300 -0.1607
  151DECAN   C2 1492   2.574   9.522   4.054  0.3309  0.2943 -0.1906
  151DECAN   C3 1493   2.694   9.614   4.030  0.3919  0.1368 -0.4909
  151DECAN   C4 1494   2.646   9.756   3.996  0.2328  0.2726  0.2891
  151DECAN   C5 1495   2.751   9.854   3.941 -0.1212  0.1961 -0.5310
  151DECAN   C6 1496   2.692   9.992   3.907  0.0718  0.5499  0.5540
  151DECAN   C7 1497   2.671  10.071   4.038  0.0896  0.5768  0.5408
  151DECAN   C8 1498   2.560  10.008   4.125  0.3261 -0.3199  0.2033
  151DECAN   C9 1499   2.502  10.106   4.228 -0.1855  0.2204 -0.5901
  151DECAN  C10 1500   2.373  10.066   4.303 -0.3092  0.5491 -0.6228
  152DECAN   C1 1501   8.249   7.980  15.127 -0.8339  0.5161 -0.1326
  152DECAN   C2 1502   8.305   8.052  15.003  0.4077  0.0539  0.1485
  152DECAN   C3 1503   8.237   8.187  14.975 -0.0193 -0.1813  0.0559
  152DECAN   C4 1504   8.244   8.275  15.102 -0.1057 -0.3263  0.1621
  152DECAN   C5 1505   8.172   8.408  15.078 -0.1012 -0.4283 -0.4462
  152DECAN   C6 1506   8.018   8.402  15.077 -0.1309  0.1266 -0.0701
  152DECAN   C7 1507   7.953   8.536  15.038  0.0388  0.2733  0.1441
  152DECAN   C8 1508   7.801   8.536  15.065 -0.0365 -0.5481 -0.2520
  152DECAN   C9 1509   7.745   8.676  15.038 -0.1153 -0.4796  0.2447
  152DECAN  C10 1510   7.798   8.791  15.126 -0.4842 -0.2664  0.1920
  153DECAN   C1 1511   6.290   9.688   8.235  0.0201  0.2321  0.1109
  153DECAN   C2 1512   6.217   9.704   8.100  0.4385 -0.0844 -0.1549
  153DECAN   C3 1513   6.301   9.787   8.001  0.5437 -0.2808 -0.2321
  153DECAN   C4 1514   6.238   9.801   7.861  0.5730  0.1528 -0.2018
  153DECAN   C5 1515   6.128   9.905   7.834  0.8795  0.4931 -0.1527
  153DECAN   C6 1516   6.091   9.932   7.687 -1.3326 -0.6542  0.1397
  153DECAN   C7 1517   6.000  10.050   7.650 -0.1217  0.2553 -0.0071
  153DECAN   C8 1518   5.999  10.081   7.499  0.1808  0.5242  0.0445
  153DECAN   C9 1519   5.884  10.166   7.443 -0.0155  0.5082  0.4194
  153DECAN  C10 1520   5.743  10.108   7.465  0.0464  0.3049  0.2752
  154DECAN   C1 1521   8.411   3.070   8.591 -0.0643  0.4731 -0.7394
  154DECAN   C2 1522   8.484   3.194   8.647 -0.1431  0.1490  0.0985
  154DECAN   C3 1523   8.382   3.276   8.728 -0.2940  0.0849 -0.0264
  154DECAN   C4 1524   8.432   3.413   8.775  0.4328 -0.3359  0.4403
  154DECAN   C5 1525   8.357   3.481   8.891 -0.3939  0.0424 -0.3053
  154DECAN   C6 1526   8.432   3.604   8.947  0.1007 -0.4235  0.0630
  154DECAN   C7 1527   8.563   3.553   9.011  0.1165 -0.4176  0.0354
  154DECAN   C8 1528   8.669   3.656   9.054 -0.4295 -0.0650  0.5585
  154DECAN   C9 1529   8.792   3.595   9.122  0.1821  0.0773 -0.4017
  154DECAN  C10 1530   8.909   3.683   9.171 -0.1066  0.5636 -0.5799
  155DECAN   C1 1531   9.628   6.522   8.622 -0.0540  0.2708 -0.0436
  155DECAN   C2 1532   9.529   6.590   8.718 -0.1166 -0.1889  0.2211
  155DECAN   C3 1533   9.600   6.690   8.811  0.3502  0.1324 -0.4717
  155DECAN   C4 1534   9.505   6.751   8.916  0.6714 -0.0166 -0.0919
  155DECAN   C5 1535   9.556   6.859   9.013 -0.4646  0.3605  0.1019
  155DECAN   C6 1536   9.442   6.893   9.111 -0.7295  0.4658 -0.2446
  155DECAN   C7 1537   9.464   6.993   9.225  0.1034  0.5358 -0.4584
  155DECAN   C8 1538   9.579   6.960   9.322 -0.2379 -0.2391 -0.3102
  155DECAN   C9 1539   9.594   7.057   9.440 -0.1195 -0.2353 -0.3281
  155DECAN  C10 1540   9.735   7.051   9.503 -0.1926  0.1168 -0.1288
  156DECAN   C1 1541   6.705   6.388  10.920 -0.1086  0.0848  0.2759
  156DECAN   C2 1542   6.737   6.487  10.807 -0.7775  0.1086  0.1100
  156DECAN   C3 1543   6.856   6.444  10.719 -0.3356  0.2299  0.6484
  156DECAN   C4 1544   6.894   6.543  10.608 -0.2078 -0.4095  0.1211
  156DECAN   C5 1545   7.013   6.508  10.515  0.0610  0.4820  0.1120
  156DECAN   C6 1546   6.979   6.421  10.393 -0.0256  0.2780  0.2797
  156DECAN   C7 1547   7.103   6.390  10.308 -0.3922 -0.0057 -0.1576
  156DECAN   C8 1548   7.065   6.311  10.181  0.0122 -0.1227 -0.2070
  156DECAN   C9 1549   7.012   6.398  10.066 -0.2416  0.0698  0.0540
  156DECAN  C10 1550   6.954   6.328   9.941 -0.1462 -0.5590  0.3587
  157DECAN   C1 1551   6.349   5.367   4.348  0.3462  0.1410 -0.2963
  157DECAN   C2 1552   6.285   5.476   4.436 -0.0629 -0.3091 -0.0274
  157DECAN   C3 1553   6.144   5.443   4.487  0.0464 -0.2945  0.2871
  157DECAN   C4 1554   6.085   5.559   4.570  0.7229  0.3501 -0.1229
  157DECAN   C5 1555   6.190   5.608   4.671  0.7724  0.4684 -0.2311
  157DECAN   C6 1556   6.151   5.740   4.740 -0.7340 -0.1413  0.1239
  157DECAN   C7 1557   6.109   5.854   4.645  0.3027 -0.0060 -0.1890
  157DECAN   C8 1558   6.222   5.890   4.547  0.7138 -0.0199  0.2767
  157DECAN   C9 1559   6.190   5.966   4.417  0.0753  1.0511  1.0404
  157DECAN  C10 1560   6.323   5.984   4.340 -0.0862  0.5788  0.6479
  158DECAN   C1 1561   8.151   0.889   7.705 -0.3234  0.1406 -0.1768
  158DECAN   C2 1562   8.196   0.833   7.842  0.4471 -0.0293 -0.4949
  158DECAN   C3 1563   8.344   0.863   7.873  0.2297  0.5017  0.0405
  158DECAN   C4 1564   8.458   0.804   7.788 -0.1699 -0.5257  0.1906
  158DECAN   C5 1565   8.566   0.913   7.775 -0.5244 -0.1539  0.3433
  158DECAN   C6 1566   8.488   1.031   7.714  0.0282  0.0411  0.0104
  158DECAN   C7 1567   8.558   1.166   7.737  0.1336  0.0044 -0.0899
  158DECAN   C8 1568   8.476   1.289   7.695  0.0991  0.0052 -0.0209
  158DECAN   C9 1569   8.551   1.414   7.643 -0.0772  0.3215  0.4802
  158DECAN  C10 1570   8.445   1.517   7.600  0.2013  0.4380  0.0774
  159DECAN   C1 1571   5.770  11.091  12.357 -0.4666  0.8157  0.2581
  159DECAN   C2 1572   5.877  11.160  12.444  0.1367 -0.1380  0.2930
  159DECAN   C3 1573   5.910   0.049  12.373 -0.6446 -0.2407 -0.2783
  159DECAN   C4 1574   5.956   0.028  12.228  0.2592  0.5760 -0.1227
  159DECAN   C5 1575   5.992   0.147  12.137 -0.0935  0.6562 -0.1612
  159DECAN   C6 1576   6.001   0.139  11.983  0.2725  0.2843 -0.1240
  159DECAN   C7 1577   6.088   0.017  11.950  0.0793  0.0902  0.0766
  159DECAN   C8 1578   6.047  11.118  11.991  0.5117 -0.1906 -0.4593
  159DECAN   C9 1579   5.930  11.057  11.912  0.0989 -0.0634  0.0546
  159DECAN  C10 1580   5.909  10.905  11.901  0.8133 -0.1903  0.3631
  160DECAN   C1 1581   1.937   0.771  13.546 -0.3231 -0.2470  0.5813
  160DECAN   C2 1582   1.805   0.842  13.583 -0.2015  0.2924  0.0000
  160DECAN   C3 1583   1.683   0.751  13.560 -0.0163 -0.0337  0.3017
  160DECAN   C4 1584   1.546   0.815  13.591 -0.2377 -0.3542 -0.0117
  160DECAN   C5 1585   1.529   0.943  13.507  0.1692 -0.1307  0.2460
  160DECAN   C6 1586   1.599   1.070  13.561  0.6689 -0.1221 -0.4095
  160DECAN   C7 1587   1.590   1.195  13.471  0.4620  0.2047  0.0648
  160DECAN   C8 1588   1.604   1.331  13.542 -0.1864  0.2980  0.0225
  160DECAN   C9 1589   1.478   1.357  13.625 -0.1614 -0.6298  0.3530
  160DECAN  C10 1590   1.479   1.491  13.700  0.3078 -0.6106  0.3125
  161DECAN   C1 1591   9.290   3.635   8.175 -0.3312  0.2498 -0.1266
  161DECAN   C2 1592   9.304   3.769   8.249 -0.4062  0.4376 -0.4478
  161DECAN   C3 1593   9.445   3.830   8.247 -0.1650 -0.0974 -0.0609
  161DECAN   C4 1594   9.481   3.926   8.361 -0.0553  0.0224 -0.1953
  161DECAN   C5 1595   9.631   3.961   8.366 -0.0624  0.0194  0.0920
  161DECAN   C6 1596   9.678   4.075   8.458 -0.3415  0.1696  0.0479
  161DECAN   C7 1597   9.808   4.133   8.401 -0.5038  0.2142 -0.2780
  161DECAN   C8 1598   9.928   4.039   8.420 -0.0566  0.8149 -0.0932
  161DECAN   C9 1599  10.061   4.087   8.358  0.0004  0.1863 -0.4680
  161DECAN  C10 1600  10.177   3.987   8.373  0.0903  0.4245  0.5116
  162DECAN   C1 1601   9.151   1.926   9.381 -0.2868  0.1288  0.3302
  162DECAN   C2 1602   9.107   2.073   9.379  0.5422  0.3785 -0.4054
  162DECAN   C3 1603   9.156   2.134   9.512 -0.1719  0.3132 -0.1077
  162DECAN   C4 1604   9.177   2.285   9.487  0.1569  0.2138 -0.4387
  162DECAN   C5 1605   9.277   2.334   9.593 -0.2334 -0.3391  0.1940
  162DECAN   C6 1606   9.417   2.271   9.591 -0.1546 -0.1686  0.3202
  162DECAN   C7 1607   9.488   2.290   9.726  0.3915  0.0510  0.0101
  162DECAN   C8 1608   9.620   2.211   9.722  0.0980 -0.4316 -0.1908
  162DECAN   C9 1609   9.727   2.245   9.616 -0.0992 -0.1389 -0.2979
  162DECAN  C10 1610   9.692   2.253   9.466  0.1373  0.2469 -0.3357
  163DECAN   C1 1611   7.856  10.216   7.241  0.4805 -0.1311  0.2048
  163DECAN   C2 1612   7.745  10.195   7.345  0.1506  0.6610  0.0262
  163DECAN   C3 1613   7.730  10.049   7.395 -0.4357  0.5370 -0.4923
  163DECAN   C4 1614   7.599  10.018   7.469  0.1025 -0.4484  0.0668
  163DECAN   C5 1615   7.583   9.873   7.517  0.6380 -0.7010 -0.5025
  163DECAN   C6 1616   7.439   9.852   7.567  0.6193 -0.3870 -0.4245
  163DECAN   C7 1617   7.333   9.860   7.456  0.2122 -0.0128 -0.0155
  163DECAN   C8 1618   7.343   9.995   7.383  0.5996 -0.1788 -0.2748
  163DECAN   C9 1619   7.241  10.025   7.271  0.3393  0.1157  0.0384
  163DECAN  C10 1620   7.242  10.164   7.205  0.1086  0.2303  0.2720
  164DECAN   C1 1621   1.782   8.808   7.940 -0.3558  0.7881  0.6150
  164DECAN   C2 1622   1.888   8.900   7.877  0.4035 -0.1812  0.4498
  164DECAN   C3 1623   2.026   8.888   7.944  0.5798  0.1590  0.1506
  164DECAN   C4 1624   2.149   8.945   7.871  0.2473  0.3636 -0.2568
  164DECAN   C5 1625   2.283   8.919   7.942 -0.1777 -0.2399  0.3355
  164DECAN   C6 1626   2.344   8.778   7.949 -0.3852 -0.3395  0.1438
  164DECAN   C7 1627   2.486   8.781   8.008 -0.0352 -0.3546 -0.6859
  164DECAN   C8 1628   2.558   8.646   8.022 -0.1070 -0.3240  0.0328
  164DECAN   C9 1629   2.493   8.556   8.128 -0.1931 -0.6914 -0.3281
  164DECAN  C10 1630   2.540   8.410   8.116  0.2511 -0.5628 -0.1548
  165DECAN   C1 1631   8.446   3.170   6.119 -0.0911 -0.1831 -0.0190
  165DECAN   C2 1632   8.423   3.159   5.967  0.2387  0.0987 -0.0889
  165DECAN   C3 1633   8.279   3.122   5.928 -0.0789  0.8638  0.3300
  165DECAN   C4 1634   8.199   3.234   5.859 -0.3578  0.5434  0.1296
  165DECAN   C5 1635   8.055   3.189   5.828 -0.1656  0.0367 -0.0337
  165DECAN   C6 1636   8.037   3.094   5.708  0.3529  0.3691 -0.3787
  165DECAN   C7 1637   7.899   3.028   5.722  0.5265  0.1758  0.4964
  165DECAN   C8 1638   7.908   2.935   5.844 -0.0937 -0.1250  0.3181
  165DECAN   C9 1639   7.775   2.873   5.890 -0.3411 -0.1792 -0.4512
  165DECAN  C10 1640   7.791   2.741   5.969  0.8011  0.0242 -0.3220
  166DECAN   C1 1641   6.776   5.363  13.322 -0.6828  0.2566  0.4457
  166DECAN   C2 1642   6.836   5.502  13.351  0.5500 -0.3067  0.6417
  166DECAN   C3 1643   6.982   5.517  13.305  0.2615  0.0961 -0.1505
  166DECAN   C4 1644   7.014   5.506  13.154 -0.6598  0.3243 -0.3689
  166DECAN   C5 1645   7.167   5.514  13.137 -0.5496  0.1587  0.4801
  166DECAN   C6 1646   7.244   5.400  13.205 -0.4314 -0.3419 -0.4691
  166DECAN   C7 1647   7.397   5.405  13.186 -0.3909 -0.2921 -0.1502
  166DECAN   C8 1648   7.442   5.332  13.058  0.7541 -0.5092  0.3661
  166DECAN   C9 1649   7.592   5.342  13.025  0.6291 -0.0074 -0.0621
  166DECAN  C10 1650   7.681   5.269  13.127  0.2981 -0.2211  0.0735
  167DECAN   C1 1651   5.875   8.184  13.779 -0.3746 -0.3144  0.5908
  167DECAN   C2 1652   5.830   8.049  13.721  0.1431 -0.1721 -0.1490
  167DECAN   C3 1653   5.690   8.049  13.656  0.0024  0.0404  0.1506
  167DECAN   C4 1654   5.654   7.919  13.581 -0.5422  0.1274  0.2605
  167DECAN   C5 1655   5.628   7.807  13.683 -0.1272 -0.6880 -0.5235
  167DECAN   C6 1656   5.482   7.822  13.729  0.3218  0.9900  0.4157
  167DECAN   C7 1657   5.441   7.735  13.850  0.1399  0.7916  0.2132
  167DECAN   C8 1658   5.290   7.735  13.878  0.2608  0.8273  0.8641
  167DECAN   C9 1659   5.237   7.646  13.992  0.5562  0.2874  0.5785
  167DECAN  C10 1660   5.092   7.677  14.035  0.4047  0.1086  0.2067
  168DECAN   C1 1661  10.636   6.051   5.951 -0.3154 -1.0474 -0.0267
  168DECAN   C2 1662  10.553   6.150   6.035  0.3554 -0.4217 -0.0977
  168DECAN   C3 1663  10.536   6.100   6.180 -0.4762  0.3556  0.0780
  168DECAN   C4 1664  10.453   6.194   6.270 -0.0625  0.1196  0.7081
  168DECAN   C5 1665  10.301   6.170   6.271 -0.0784  0.1642 -0.1237
  168DECAN   C6 1666  10.220   6.260   6.366  0.1298 -0.5269  0.7160
  168DECAN   C7 1667  10.067   6.243   6.364  0.0456  0.2388 -0.0244
  168DECAN   C8 1668   9.982   6.324   6.465 -0.1975 -0.1962  0.1257
  168DECAN   C9 1669  10.000   6.265   6.606 -0.1714  0.0341  0.2188
  168DECAN  C10 1670   9.943   6.357   6.715 -0.6380 -0.0860  0.0791
  169DECAN   C1 1671   4.309   3.946   8.369  0.3532 -0.0056  0.2120
  169DECAN   C2 1672   4.384   3.974   8.238 -0.0844  0.2634  0.0186
  169DECAN   C3 1673   4.451   4.112   8.239 -0.1692  0.3089 -0.3868
  169DECAN   C4 1674   4.559   4.139   8.132 -0.2687  0.2756 -0.4961
  169DECAN   C5 1675   4.502   4.160   7.991  0.0127 -0.6192 -0.7487
  169DECAN   C6 1676   4.603   4.164   7.875  0.0960 -0.3658 -0.6671
  169DECAN   C7 1677   4.530   4.196   7.743 -0.2148  0.0543 -0.3945
  169DECAN   C8 1678   4.451   4.327   7.722  0.0151  0.2398 -0.1050
  169DECAN   C9 1679   4.355   4.318   7.602 -0.3044  0.1435  0.1548
  169DECAN  C10 1680   4.247   4.210   7.622 -0.0325 -0.0800  0.4300
  170DECAN   C1 1681   7.843   7.018   6.837  0.2305 -0.3673 -0.4164
  170DECAN   C2 1682   7.853   7.088   6.700 -0.1309 -0.0799 -0.2999
  170DECAN   C3 1683   7.765   7.014   6.597 -0.4489 -0.1487  0.0198
  170DECAN   C4 1684   7.770   7.083   6.459 -0.3605  0.2302  0.2103
  170DECAN   C5 1685   7.675   7.024   6.353 -0.6101  0.1299  0.4868
  170DECAN   C6 1686   7.654   6.872   6.338 -0.3503  0.1834 -0.4788
  170DECAN   C7 1687   7.630   6.820   6.481 -0.5011  0.2949 -0.4628
  170DECAN   C8 1688   7.589   6.672   6.485 -0.1251  0.2014 -0.0317
  170DECAN   C9 1689   7.562   6.621   6.628 -0.0090 -0.2616 -0.1741
  170DECAN  C10 1690   7.683   6.607   6.723 -0.0115  0.0128 -0.1300
  171DECAN   C1 1691   2.525   8.990   6.603 -0.0796 -0.0972  0.4404
  171DECAN   C2 1692   2.616   9.107   6.645 -0.2170 -0.0508  0.6112
  171DECAN   C3 1693   2.736   9.059   6.728  0.4149  0.1339 -0.1802
  171DECAN   C4 1694   2.702   8.998   6.865 -0.1573 -0.0268 -0.3917
  171DECAN   C5 1695   2.835   8.938   6.913 -0.4463 -0.7649 -0.4900
  171DECAN   C6 1696   2.827   8.872   7.052 -0.2025 -0.0366 -0.1195
  171DECAN   C7 1697   2.753   8.736   7.043  0.1984 -0.3092  0.6114
  171DECAN   C8 1698   2.837   8.636   6.961  0.0460  0.0420  0.0193
  171DECAN   C9 1699   2.761   8.503   6.955 -0.4428  0.3483 -0.7631
  171DECAN  C10 1700   2.857   8.383   6.937 -0.4178  0.2201  0.1572
  172DECAN   C1 1701   6.177  10.001   5.849  0.6040 -0.3329 -0.3026
  172DECAN   C2 1702   6.291  10.060   5.763 -0.0037  1.0211 -0.2095
  172DECAN   C3 1703   6.299  10.030   5.612 -0.2867  0.2577 -0.0827
  172DECAN   C4 1704   6.279   9.881   5.582  0.2251  0.3144 -0.7360
  172DECAN   C5 1705   6.265   9.853   5.431 -0.5808 -0.0504 -0.5953
  172DECAN   C6 1706   6.258   9.706   5.388 -0.3939 -0.2426  0.0129
  172DECAN   C7 1707   6.384   9.638   5.446 -0.4476 -0.3980 -0.0501
  172DECAN   C8 1708   6.412   9.509   5.367  0.0145 -0.2147 -0.1866
  172DECAN   C9 1709   6.548   9.449   5.405 -0.2418 -0.2966  0.6188
  172DECAN  C10 1710   6.589   9.313   5.344 -0.2374 -0.0066 -0.0313
  173DECAN   C1 1711   4.329   3.962   3.822 -0.3588 -0.2885 -0.1914
  173DECAN   C2 1712   4.277   3.970   3.967 -0.3301 -0.0891 -0.1915
  173DECAN   C3 1713   4.249   4.115   4.011 -0.1494 -0.1679  0.1856
  173DECAN   C4 1714   4.199   4.128   4.156  0.0352 -0.0469  0.2388
  173DECAN   C5 1715   4.162   4.271   4.198 -0.0646 -0.0103  0.0310
  173DECAN   C6 1716   4.111   4.280   4.343 -0.3608 -0.6574 -0.0328
  173DECAN   C7 1717   4.079   4.420   4.397  0.4222 -0.7360  0.6691
  173DECAN   C8 1718   3.945   4.495   4.378  0.5904 -0.6163 -0.0945
  173DECAN   C9 1719   3.927   4.639   4.431  0.0612 -0.5251 -0.5164
  173DECAN  C10 1720   3.791   4.705   4.403  0.2309  0.0657  0.0278
  174DECAN   C1 1721   7.929   8.214   8.337  0.0066  0.3029  0.6152
  174DECAN   C2 1722   8.005   8.087   8.293  0.0693  0.5718 -0.0497
  174DECAN   C3 1723   8.042   8.098   8.143  0.0910  0.2934 -0.0659
  174DECAN   C4 1724   8.058   7.958   8.082  0.2513  0.1436  0.3147
  174DECAN   C5 1725   8.064   7.985   7.931  0.2462  0.1749  0.3203
  174DECAN   C6 1726   8.154   8.109   7.913  0.5438 -0.1940 -0.8330
  174DECAN   C7 1727   8.148   8.170   7.772  0.5188 -0.4013 -0.9227
  174DECAN   C8 1728   8.222   8.303   7.750 -0.0308  0.1549  0.5251
  174DECAN   C9 1729   8.207   8.378   7.616  0.4161 -0.3427  0.1970
  174DECAN  C10 1730   8.280   8.512   7.599 -0.4382  0.0816 -0.1593
  175DECAN   C1 1731   8.970   6.447   9.513 -0.1519  0.1207 -0.3559
  175DECAN   C2 1732   8.941   6.598   9.502  0.5042  0.2888  0.1398
  175DECAN   C3 1733   8.871   6.658   9.624  0.1962  0.0807  0.0651
  175DECAN   C4 1734   8.948   6.631   9.755  0.2062  0.1492  0.0745
  175DECAN   C5 1735   9.021   6.496   9.765  0.5883  0.3298 -0.2541
  175DECAN   C6 1736   9.062   6.452   9.907  0.7376 -0.0550 -0.4138
  175DECAN   C7 1737   9.152   6.556   9.977  0.5747 -0.2404  0.0705
  175DECAN   C8 1738   9.080   6.649  10.077  0.2707 -0.1483 -0.2321
  175DECAN   C9 1739   9.177   6.739  10.155 -0.0950  0.3923 -0.3927
  175DECAN  C10 1740   9.291   6.651  10.210 -0.3343  0.0067 -0.5087
  176DECAN   C1 1741   1.943  10.688  14.021 -0.5057 -0.3759 -0.2924
  176DECAN   C2 1742   2.084  10.652  13.973 -0.2082  0.5173 -0.1138
  176DECAN   C3 1743   2.117  10.502  13.990 -0.7148  0.3586 -0.5053
  176DECAN   C4 1744   2.250  10.464  13.922 -0.4047 -0.3782  0.4996
  176DECAN   C5 1745   2.261  10.310  13.931  0.4655 -0.3763 -0.3852
  176DECAN   C6 1746   2.400  10.269  13.879  0.7514 -0.1067  0.1574
  176DECAN   C7 1747   2.427  10.118  13.871 -0.4613 -0.3261  0.0450
  176DECAN   C8 1748   2.404  10.046  14.006 -0.6735 -0.0200  0.1730
  176DECAN   C9 1749   2.434   9.895  14.014  0.3930  0.1713  0.0068
  176DECAN  C10 1750   2.466   9.845  14.155 -0.6729 -0.6751 -0.0345
  177DECAN   C1 1751   5.681   1.048   7.180 -0.4717 -0.0572  0.3533
  177DECAN   C2 1752   5.656   1.104   7.321  0.6730 -0.0783  0.5759
  177DECAN   C3 1753   5.547   1.212   7.303  0.0632 -0.7517  0.1705
  177DECAN   C4 1754   5.499   1.263   7.440  0.4279 -0.4550  0.1914
  177DECAN   C5 1755   5.615   1.333   7.512  0.2175  0.4249 -0.3108
  177DECAN   C6 1756   5.741   1.249   7.537 -0.0957 -0.1995 -0.8357
  177DECAN   C7 1757   5.852   1.322   7.615 -0.4029 -0.5965 -0.0235
  177DECAN   C8 1758   5.957   1.226   7.674  0.2587  0.3352  0.3249
  177DECAN   C9 1759   5.992   1.124   7.564  0.3087  0.2060  0.4611
  177DECAN  C10 1760   6.113   1.032   7.591  0.4005  0.2987  0.3649
  178DECAN   C1 1761   7.528   4.761   8.791 -0.1673 -0.0431  0.5090
  178DECAN   C2 1762   7.513   4.914   8.801 -0.5026 -0.0066 -0.4357
  178DECAN   C3 1763   7.419   4.950   8.918  0.0296 -0.3310  0.0925
  178DECAN   C4 1764   7.459   4.883   9.051  0.8554 -0.0195  0.0088
  178DECAN   C5 1765   7.421   4.734   9.047 -0.9608  0.4149  0.3725
  178DECAN   C6 1766   7.449   4.654   9.176  0.3153  0.2902  0.0253
  178DECAN   C7 1767   7.398   4.509   9.176  0.1486  0.3481 -0.1296
  178DECAN   C8 1768   7.423   4.448   9.315  0.0618  0.2101 -0.1735
  178DECAN   C9 1769   7.394   4.546   9.431  0.0741 -0.1630  0.1481
  178DECAN  C10 1770   7.258   4.615   9.452  0.0675 -0.1285 -0.0036
  179DECAN   C1 1771   5.668   8.043   5.596 -0.4054  0.0803 -0.1574
  179DECAN   C2 1772   5.668   7.998   5.449 -0.0808 -0.2004 -0.0719
  179DECAN   C3 1773   5.746   8.089   5.354  0.2513  0.0387  0.4255
  179DECAN   C4 1774   5.892   8.042   5.338  0.1060 -0.1488 -0.4511
  179DECAN   C5 1775   5.985   8.146   5.272  0.2535 -0.1076 -0.1821
  179DECAN   C6 1776   6.131   8.103   5.254  0.2923 -0.0769  0.0523
  179DECAN   C7 1777   6.221   8.225   5.233 -0.1663  0.1920 -0.3842
  179DECAN   C8 1778   6.370   8.188   5.224 -0.1151  0.2966  0.0138
  179DECAN   C9 1779   6.464   8.310   5.218  0.3674 -0.0685 -0.0106
  179DECAN  C10 1780   6.615   8.280   5.222  0.3950  0.0752  0.0186
  180DECAN   C1 1781   7.293   2.690  10.100  0.0496 -0.1096  0.7959
  180DECAN   C2 1782   7.156   2.681  10.030  0.4018  0.4057  0.0246
  180DECAN   C3 1783   7.134   2.551   9.950 -0.3434  0.1322  0.6581
  180DECAN   C4 1784   7.263   2.500   9.883 -0.2332  0.5111  0.5747
  180DECAN   C5 1785   7.212   2.413   9.767  0.4239 -0.2271  0.8257
  180DECAN   C6 1786   7.311   2.358   9.663 -0.1387 -0.2001  0.2685
  180DECAN   C7 1787   7.229   2.304   9.544 -0.0665 -0.2306  0.2321
  180DECAN   C8 1788   7.309   2.201   9.462  0.0204 -0.0385  0.0749
  180DECAN   C9 1789   7.245   2.178   9.324 -0.2776 -0.4547  0.2786
  180DECAN  C10 1790   7.320   2.075   9.236  0.4669  0.4823 -0.2058
  181DECAN   C1 1791   3.890   4.191  12.859  0.0157  0.1583  0.3255
  181DECAN   C2 1792   3.737   4.192  12.873 -0.0175  0.6900 -0.0501
  181DECAN   C3 1793   3.665   4.222  12.740  0.0226  0.7368 -0.0609
  181DECAN   C4 1794   3.511   4.230  12.734 -0.0107  0.2479  0.1414
  181DECAN   C5 1795   3.471   4.301  12.604 -0.3666  0.2670  0.2613
  181DECAN   C6 1796   3.516   4.447  12.589  0.3113  0.0440  0.0874
  181DECAN   C7 1797   3.669   4.459  12.600  0.3290 -0.0086 -0.0958
  181DECAN   C8 1798   3.731   4.600  12.596  0.1709  0.0650  0.0266
  181DECAN   C9 1799   3.679   4.688  12.711  0.5874  0.0606  0.2187
  181DECAN  C10 1800   3.704   4.840  12.709 -0.3947  0.2191 -0.1741
  182DECAN   C1 1801   8.171   8.611  10.725  0.2019 -0.3407  0.1529
  182DECAN   C2 1802   8.200   8.645  10.577 -0.2919  0.3061  0.1979
  182DECAN   C3 1803   8.150   8.782  10.528 -0.5612  0.1392  0.0027
  182DECAN   C4 1804   8.034   8.764  10.428 -0.0697 -0.2685 -0.5023
  182DECAN   C5 1805   7.947   8.888  10.405 -0.0194 -0.1089  0.1319
  182DECAN   C6 1806   8.044   9.006  10.389 -0.4212  0.1910 -0.1377
  182DECAN   C7 1807   7.959   9.134  10.382 -0.1372  0.4153  0.5040
  182DECAN   C8 1808   8.038   9.247  10.312  0.2316 -0.1891 -0.0605
  182DECAN   C9 1809   8.010   9.385  10.372  0.3183 -0.1913 -0.0159
  182DECAN  C10 1810   8.030   9.398  10.525  0.0012 -0.2608  0.0314
  183DECAN   C1 1811   3.781   2.366  11.185  0.1677  0.8155  0.1452
  183DECAN   C2 1812   3.815   2.231  11.118 -0.0928  0.8823 -0.1247
  183DECAN   C3 1813   3.705   2.124  11.130  0.4598  0.3348  0.1448
  183DECAN   C4 1814   3.704   2.026  11.011  0.2524  0.0827  0.3525
  183DECAN   C5 1815   3.628   2.067  10.884  0.4796 -0.4031  0.0608
  183DECAN   C6 1816   3.707   2.181  10.817  0.0710  0.0637  0.3683
  183DECAN   C7 1817   3.662   2.216  10.674  0.1653 -0.0518  0.3106
  183DECAN   C8 1818   3.735   2.332  10.605 -0.2349 -0.2479 -0.4505
  183DECAN   C9 1819   3.882   2.298  10.574 -0.1336 -0.7479  0.5582
  183DECAN  C10 1820   3.958   2.426  10.534 -0.3301 -0.6979  0.3454
  184DECAN   C1 1821   6.019   6.908   5.962  0.3790 -0.6580 -0.1738
  184DECAN   C2 1822   6.079   6.882   6.101 -0.1397 -0.1384  0.1559
  184DECAN   C3 1823   6.016   6.765   6.178 -0.3062 -0.0171  0.2033
  184DECAN   C4 1824   6.117   6.677   6.254  0.1177  0.4285  0.1614
  184DECAN   C5 1825   6.067   6.563   6.345 -0.1177  0.0787 -0.4037
  184DECAN   C6 1826   5.987   6.463   6.259  0.7198 -0.7093 -0.2826
  184DECAN   C7 1827   5.917   6.355   6.342  0.1162  0.0346  0.1863
  184DECAN   C8 1828   5.805   6.414   6.430 -0.3948 -0.3997 -0.1629
  184DECAN   C9 1829   5.777   6.337   6.560 -0.5611 -0.6554 -0.3501
  184DECAN  C10 1830   5.656   6.382   6.643 -0.0552  0.4949 -0.2234
  185DECAN   C1 1831   4.481   8.086   5.863  0.0330 -0.2600  0.3214
  185DECAN   C2 1832   4.350   8.065   5.941 -0.1184 -0.3867  0.0332
  185DECAN   C3 1833   4.372   7.976   6.065 -0.3936  0.0226  0.3776
  185DECAN   C4 1834   4.244   7.949   6.147 -0.4716  0.5414  0.4283
  185DECAN   C5 1835   4.258   7.897   6.291 -0.9467 -0.9874 -0.0601
  185DECAN   C6 1836   4.127   7.873   6.369 -0.6011 -0.8270  0.5736
  185DECAN   C7 1837   4.140   7.816   6.512 -0.0111 -0.1175  0.8093
  185DECAN   C8 1838   4.013   7.778   6.590 -0.3839 -0.1586  0.1915
  185DECAN   C9 1839   4.048   7.751   6.737 -0.1665 -0.0141  0.1661
  185DECAN  C10 1840   3.926   7.770   6.829 -0.4811 -0.3323 -0.1840
  186DECAN   C1 1841   3.198   8.591  11.168 -0.0411  0.1807 -0.0396
  186DECAN   C2 1842   3.182   8.493  11.286 -0.3487 -0.2664 -0.4515
  186DECAN   C3 1843   3.091   8.376  11.245  0.1718 -0.5715 -0.7561
  186DECAN   C4 1844   3.072   8.264  11.350  0.6594 -0.3502 -0.4268
  186DECAN   C5 1845   2.956   8.168  11.314 -0.4711  0.5233  0.7860
  186DECAN   C6 1846   2.974   8.021  11.357 -0.3243  0.0367 -0.8833
  186DECAN   C7 1847   2.878   7.929  11.279 -1.4123 -0.5747  1.1226
  186DECAN   C8 1848   2.925   7.782  11.287  0.1683 -0.1665 -0.1749
  186DECAN   C9 1849   2.854   7.691  11.184 -0.4331  0.5822 -0.4364
  186DECAN  C10 1850   2.704   7.724  11.172 -0.5533 -0.0269 -0.6274
  187DECAN   C1 1851   5.972  10.046  13.924  0.1374 -0.2477  0.4386
  187DECAN   C2 1852   5.918   9.911  13.973  0.0816 -0.4025 -0.0355
  187DECAN   C3 1853   5.765   9.896  13.975  0.0387  0.0169 -0.0510
  187DECAN   C4 1854   5.728   9.760  14.037 -0.3591  0.2669  0.2658
  187DECAN   C5 1855   5.582   9.714  14.021 -0.0483 -0.4896 -0.5120
  187DECAN   C6 1856   5.554   9.568  14.061 -0.3255 -0.3503 -0.1820
  187DECAN   C7 1857   5.453   9.503  13.964 -0.0652 -0.1943 -0.5606
  187DECAN   C8 1858   5.407   9.358  13.984  0.1656 -0.2328 -0.2973
  187DECAN   C9 1859   5.308   9.305  13.879  0.3994 -0.2207 -0.5261
  187DECAN  C10 1860   5.320   9.368  13.739  0.2641  0.3642 -0.2765
  188DECAN   C1 1861   4.874   3.402  14.341  0.2296  0.2518  0.0112
  188DECAN   C2 1862   4.933   3.460  14.471  0.2394 -0.0004  0.1179
  188DECAN   C3 1863   4.877   3.393  14.598 -0.6072  0.4239 -0.0242
  188DECAN   C4 1864   4.984   3.394  14.709 -0.1163 -0.2301 -0.4847
  188DECAN   C5 1865   4.980   3.497  14.824 -0.0781 -0.6832 -0.0720
  188DECAN   C6 1866   5.054   3.453  14.952  0.2997  0.1845  0.0150
  188DECAN   C7 1867   5.020   3.316  15.012 -0.1400  0.3001  0.0329
  188DECAN   C8 1868   4.868   3.304  15.035 -0.1237  0.1961  0.0872
  188DECAN   C9 1869   4.821   3.429  15.112  0.0176  0.7116 -0.6548
  188DECAN  C10 1870   4.668   3.438  15.125  0.0361 -0.1451  0.2570
  189DECAN   C1 1871   8.723   6.883   6.182 -0.2443 -0.0342  0.0570
  189DECAN   C2 1872   8.577   6.836   6.192 -0.4907  0.7027  0.0359
  189DECAN   C3 1873   8.546   6.739   6.308  0.0111 -0.0309 -0.4298
  189DECAN   C4 1874   8.402   6.684   6.310  0.0196 -0.0287  0.3969
  189DECAN   C5 1875   8.379   6.575   6.417  0.5299  0.5918  1.1462
  189DECAN   C6 1876   8.232   6.530   6.426  0.6610 -0.1180 -0.0333
  189DECAN   C7 1877   8.206   6.461   6.562  0.5325 -0.3719 -0.1872
  189DECAN   C8 1878   8.060   6.414   6.559  0.3450  0.1745  0.2830
  189DECAN   C9 1879   8.005   6.363   6.694 -0.3241 -0.0021 -0.0545
  189DECAN  C10 1880   8.003   6.469   6.806  0.1418 -0.1704  0.1138
  190DECAN   C1 1881   9.817   4.755  10.906  0.2267  0.1817  0.2931
  190DECAN   C2 1882   9.691   4.670  10.935  0.3153  0.0827  0.3927
  190DECAN   C3 1883   9.575   4.705  10.839  0.2276 -0.5479  0.2679
  190DECAN   C4 1884   9.446   4.626  10.866 -0.1922  0.2810  0.7239
  190DECAN   C5 1885   9.320   4.689  10.803  0.0769  0.1972  0.1010
  190DECAN   C6 1886   9.191   4.610  10.831  0.0516 -0.0285 -0.6361
  190DECAN   C7 1887   9.073   4.676  10.758  0.0031  0.3125 -0.2498
  190DECAN   C8 1888   8.938   4.628  10.815  0.1967  0.1306  0.0568
  190DECAN   C9 1889   8.915   4.674  10.960 -0.0816  0.5333 -0.1161
  190DECAN  C10 1890   8.785   4.619  11.021  0.1118  0.1919 -0.0082
  191DECAN   C1 1891   9.798   9.243   5.779  0.2519  0.2353  0.3383
  191DECAN   C2 1892   9.818   9.140   5.892 -0.0481 -0.4244 -0.2062
  191DECAN   C3 1893   9.783   8.995   5.850 -0.3634 -0.4476  0.1375
  191DECAN   C4 1894   9.816   8.887   5.954  0.9534 -0.1975 -0.0068
  191DECAN   C5 1895   9.786   8.753   5.885  0.0510 -0.1533  0.2866
  191DECAN   C6 1896   9.750   8.640   5.983  0.4237 -0.4224  0.1149
  191DECAN   C7 1897   9.850   8.630   6.100  0.0697 -0.0182  0.4560
  191DECAN   C8 1898   9.821   8.537   6.219 -0.1629 -0.0879  0.3460
  191DECAN   C9 1899   9.922   8.566   6.332 -0.6525  0.5353  0.6289
  191DECAN  C10 1900   9.918   8.466   6.449 -0.8801 -0.6460 -0.3697
  192DECAN   C1 1901   4.804   6.655   8.034  0.2732  0.4273  0.6023
  192DECAN   C2 1902   4.822   6.806   8.008 -0.0430  0.3132 -0.3256
  192DECAN   C3 1903   4.955   6.868   8.055 -0.1960 -0.0708  0.6447
  192DECAN   C4 1904   5.077   6.847   7.963 -0.6997  0.0011 -0.0544
  192DECAN   C5 1905   5.051   6.906   7.824 -0.2706 -0.2201 -0.2284
  192DECAN   C6 1906   5.177   6.922   7.736 -0.2281  0.0645 -0.1170
  192DECAN   C7 1907   5.137   6.964   7.593 -0.1548 -0.0413 -0.1683
  192DECAN   C8 1908   5.061   6.864   7.503  0.0896  0.0173 -0.4394
  192DECAN   C9 1909   5.010   6.947   7.383  0.1027  0.4623 -0.1412
  192DECAN  C10 1910   4.906   7.052   7.425  0.0629  0.4618 -0.2385
  193DECAN   C1 1911   9.181   9.717   8.957  0.8117  0.3064  0.3574
  193DECAN   C2 1912   9.323   9.681   9.006  0.7051 -0.1696  0.3235
  193DECAN   C3 1913   9.369   9.534   9.012  0.4438 -0.2437  0.5471
  193DECAN   C4 1914   9.366   9.458   8.879  0.0876 -0.0583  0.4484
  193DECAN   C5 1915   9.448   9.328   8.875  0.1136 -0.0241 -0.4471
  193DECAN   C6 1916   9.456   9.258   8.738 -0.0521  0.0310 -0.4848
  193DECAN   C7 1917   9.566   9.297   8.637  0.5433  0.0653  0.1703
  193DECAN   C8 1918   9.559   9.225   8.502 -0.2162 -0.1056  0.2923
  193DECAN   C9 1919   9.431   9.275   8.434 -0.1448 -0.4418 -0.1008
  193DECAN  C10 1920   9.383   9.198   8.310 -0.5343 -0.8163  0.2767
  194DECAN   C1 1921   9.132   6.909   7.463 -0.1475 -0.0401  0.5065
  194DECAN   C2 1922   9.214   6.867   7.340  0.2825  0.4913  0.6110
  194DECAN   C3 1923   9.281   6.977   7.256  0.5481  0.1809  0.4112
  194DECAN   C4 1924   9.335   6.929   7.120 -0.7160 -0.0839 -0.0058
  194DECAN   C5 1925   9.411   7.039   7.044 -0.2199  0.0114  0.6182
  194DECAN   C6 1926   9.320   7.153   6.995  0.3003 -0.0515 -0.5275
  194DECAN   C7 1927   9.198   7.117   6.908 -0.1539 -0.3625  0.2304
  194DECAN   C8 1928   9.106   7.240   6.915  0.0320 -0.2033 -0.0988
  194DECAN   C9 1929   9.001   7.239   6.802 -0.0803  0.3568 -0.0021
  194DECAN  C10 1930   8.871   7.316   6.833 -0.3041  0.0390 -0.1415
  195DECAN   C1 1931   3.364   8.109  10.968  0.1385  0.4969 -0.0424
  195DECAN   C2 1932   3.269   8.107  10.846 -0.1268  0.5199  0.1630
  195DECAN   C3 1933   3.143   8.020  10.865  0.3118 -0.1716 -0.0694
  195DECAN   C4 1934   3.118   7.935  10.739  0.2400 -0.3059  0.0356
  195DECAN   C5 1935   2.983   7.864  10.762 -0.3640  0.7906 -0.0801
  195DECAN   C6 1936   2.917   7.794  10.642  0.7373  0.6204 -0.6036
  195DECAN   C7 1937   2.983   7.665  10.589  0.1070 -0.0899  0.3064
  195DECAN   C8 1938   3.119   7.693  10.523  0.1944  0.2924  0.6459
  195DECAN   C9 1939   3.200   7.564  10.499  0.5998  0.6450  0.0921
  195DECAN  C10 1940   3.213   7.473  10.623  0.2439  0.5147  0.0371
  196DECAN   C1 1941   2.817   9.104   4.195  0.1123 -0.4108 -0.2143
  196DECAN   C2 1942   2.919   9.205   4.250  0.0302 -0.6128  0.3127
  196DECAN   C3 1943   3.044   9.128   4.297  0.4794 -0.1845 -0.1699
  196DECAN   C4 1944   3.019   9.069   4.437  0.4779  0.6707  0.1933
  196DECAN   C5 1945   3.106   8.943   4.455 -0.6063 -0.1616 -0.3434
  196DECAN   C6 1946   3.084   8.872   4.590  0.0403 -0.1086 -0.2062
  196DECAN   C7 1947   3.202   8.789   4.642  0.2178  0.4335  0.2585
  196DECAN   C8 1948   3.252   8.686   4.540  0.7981  0.6404  0.3279
  196DECAN   C9 1949   3.364   8.596   4.596  0.5053 -0.0524 -0.1779
  196DECAN  C10 1950   3.395   8.484   4.495  0.0614 -0.3023 -0.0417
  197DECAN   C1 1951   9.214   9.897  12.472 -0.3062  0.0357  0.1900
  197DECAN   C2 1952   9.332   9.886  12.570 -0.0755  0.5208 -0.0322
  197DECAN   C3 1953   9.414  10.014  12.591 -0.1846  0.5319  0.3267
  197DECAN   C4 1954   9.523  10.007  12.700 -0.4103 -0.1504  0.5054
  197DECAN   C5 1955   9.622  10.124  12.699 -0.6062  0.0142  0.2954
  197DECAN   C6 1956   9.724  10.121  12.814  0.3074  0.4087 -0.4947
  197DECAN   C7 1957   9.817  10.241  12.842  0.1770  0.4195 -0.1038
  197DECAN   C8 1958   9.874  10.222  12.984 -0.2929 -0.0039  0.0328
  197DECAN   C9 1959   9.983  10.321  13.029 -0.5664  0.0309  0.6260
  197DECAN  C10 1960  10.037  10.300  13.172  0.3551  0.1130  0.2947
  198DECAN   C1 1961   4.322   9.834  12.269  0.0068  0.7532 -0.0884
  198DECAN   C2 1962   4.405   9.953  12.317  0.2438  0.3528  0.5046
  198DECAN   C3 1963   4.430  10.049  12.199  0.6503 -0.0452  0.2667
  198DECAN   C4 1964   4.304  10.135  12.176  0.9373  0.2358 -0.2818
  198DECAN   C5 1965   4.262  10.200  12.309 -0.4526 -0.2569 -0.4615
  198DECAN   C6 1966   4.154  10.309  12.304  0.1431  0.3835  0.2788
  198DECAN   C7 1967   4.124  10.358  12.447 -0.3694 -0.3130  0.4147
  198DECAN   C8 1968   4.040  10.486  12.461  0.2648  0.1345  0.1667
  198DECAN   C9 1969   4.130  10.611  12.464  0.0102  0.3188  0.2108
  198DECAN  C10 1970   4.193  10.654  12.331 -0.1183 -0.8511 -0.2393
  199DECAN   C1 1971   7.918   0.788  14.373  0.2148  0.4663 -0.1699
  199DECAN   C2 1972   7.805   0.879  14.323 -0.0469  0.3455  0.2043
  199DECAN   C3 1973   7.837   0.979  14.211  0.3451 -0.1185 -0.1030
  199DECAN   C4 1974   7.949   1.077  14.252  0.1015  0.2395 -0.2810
  199DECAN   C5 1975   7.994   1.186  14.154  0.1988  0.7121  0.2848
  199DECAN   C6 1976   8.085   1.127  14.045  0.1527 -0.3628  0.8222
  199DECAN   C7 1977   8.171   1.230  13.971 -0.9798  0.3519  0.4786
  199DECAN   C8 1978   8.087   1.309  13.869  0.3847  0.2242 -0.7845
  199DECAN   C9 1979   8.161   1.411  13.780  0.3644  0.7267 -0.2277
  199DECAN  C10 1980   8.057   1.490  13.698 -0.2056  0.3097  0.0859
  200DECAN   C1 1981   9.336   5.119  14.337 -0.2204 -0.6781 -0.0296
  200DECAN   C2 1982   9.475   5.053  14.334  0.1796  0.1523 -0.0343
  200DECAN   C3 1983   9.572   5.149  14.406  0.0686  0.2623 -0.0311
  200DECAN   C4 1984   9.721   5.122  14.377  0.1343  0.6460 -0.0577
  200DECAN   C5 1985   9.807   5.241  14.421  1.3255 -0.3329  0.3021
  200DECAN   C6 1986   9.767   5.285  14.562 -0.5126  0.1037 -0.3316
  200DECAN   C7 1987   9.883   5.327  14.655 -0.3087 -0.7886 -0.1808
  200DECAN   C8 1988   9.839   5.370  14.796 -0.4519  0.1032 -0.4927
  200DECAN   C9 1989   9.694   5.420  14.805 -0.4021  0.1747 -0.0458
  200DECAN  C10 1990   9.628   5.421  14.944 -0.1670  0.1600  0.0655
  201DECAN   C1 1991   3.087   4.287   7.673 -0.0015 -0.2340 -0.8388
  201DECAN   C2 1992   3.225   4.242   7.622  0.4605 -0.0996  0.2665
  201DECAN   C3 1993   3.215   4.156   7.494 -0.3801 -0.6204  0.6750
  201DECAN   C4 1994   3.109   4.201   7.392  0.2099  0.1831  0.4052
  201DECAN   C5 1995   2.964   4.168   7.434  0.1170  0.2097  0.1063
  201DECAN   C6 1996   2.858   4.172   7.322 -0.0015 -0.3236  0.1950
  201DECAN   C7 1997   2.715   4.128   7.358 -0.2053 -0.0927 -0.3162
  201DECAN   C8 1998   2.629   4.151   7.233 -0.0065  0.1686 -0.4053
  201DECAN   C9 1999   2.676   4.073   7.109  0.3383  0.3656 -0.3995
  201DECAN  C10 2000   2.574   4.069   6.993  0.1570 -0.0003 -0.2278
  202DECAN   C1 2001   6.381   6.809  12.464 -0.3616 -0.0630 -0.9801
  202DECAN   C2 2002   6.247   6.815  12.540  0.3262 -0.1549  0.2557
  202DECAN   C3 2003   6.119   6.751  12.485 -0.0043  0.5809  0.1476
  202DECAN   C4 2004   6.068   6.803  12.350  0.2170  0.4981  0.0316
  202DECAN   C5 2005   5.939   6.739  12.295  0.2676 -0.1411  0.6468
  202DECAN   C6 2006   5.956   6.588  12.269 -0.1993 -0.0769 -0.0751
  202DECAN   C7 2007   6.080   6.560  12.182 -0.1115  0.0361  0.0128
  202DECAN   C8 2008   6.125   6.414  12.195 -0.2171  0.0127  0.1165
  202DECAN   C9 2009   6.027   6.308  12.143 -0.0173  0.1180 -0.4756
  202DECAN  C10 2010   6.016   6.323  11.990  0.4145  0.2840 -0.4912
  203DECAN   C1 2011   9.649   9.560  13.197 -0.0726 -0.7520 -0.4240
  203DECAN   C2 2012   9.640   9.674  13.095  1.2831 -0.0132  0.2496
  203DECAN   C3 2013   9.599   9.819  13.129  0.0704 -0.2025 -0.3357
  203DECAN   C4 2014   9.474   9.820  13.219  0.1224 -0.1429 -0.2629
  203DECAN   C5 2015   9.392   9.949  13.237 -0.2233 -0.2584 -0.9917
  203DECAN   C6 2016   9.265   9.936  13.324  0.1953 -0.2271 -0.3700
  203DECAN   C7 2017   9.170  10.057  13.312  0.3372 -0.0714  0.0825
  203DECAN   C8 2018   9.045  10.050  13.403 -0.0239  0.0527 -0.4030
  203DECAN   C9 2019   8.945  10.166  13.384 -0.2184 -0.0794 -0.1882
  203DECAN  C10 2020   9.017  10.300  13.362  0.2137 -0.3647 -0.5414
  204DECAN   C1 2021   2.768   9.870   4.511  0.2751  0.0701  0.1366
  204DECAN   C2 2022   2.646   9.777   4.497 -0.1575  0.6180  0.2013
  204DECAN   C3 2023   2.571   9.769   4.631 -0.1210 -0.2567  0.1750
  204DECAN   C4 2024   2.434   9.699   4.636 -0.2880  0.0468 -0.1287
  204DECAN   C5 2025   2.339   9.786   4.553  0.0186 -0.2745 -0.8257
  204DECAN   C6 2026   2.189   9.757   4.576 -0.0491  0.1546 -0.7187
  204DECAN   C7 2027   2.127   9.630   4.514 -0.6243  0.2082 -0.2594
  204DECAN   C8 2028   2.180   9.596   4.374  0.1594 -0.1720  0.1209
  204DECAN   C9 2029   2.122   9.457   4.343 -0.4579  0.0190  0.3972
  204DECAN  C10 2030   2.180   9.392   4.215 -0.2856 -0.1682  0.5699
  205DECAN   C1 2031   8.831  10.326   3.908  0.1636  0.2319  0.6596
  205DECAN   C2 2032   8.734  10.437   3.866  0.4696  0.2465 -0.0194
  205DECAN   C3 2033   8.628  10.458   3.976  0.3733  0.1967 -0.1026
  205DECAN   C4 2034   8.521  10.349   3.991  0.3429  0.2123 -0.2131
  205DECAN   C5 2035   8.398  10.382   4.079 -0.0833 -0.3065 -0.6071
  205DECAN   C6 2036   8.317  10.258   4.122  0.2774 -0.2767  0.1690
  205DECAN   C7 2037   8.177  10.287   4.179  0.2911  0.1138  0.0066
  205DECAN   C8 2038   8.092  10.161   4.203  0.1485  0.1819 -0.1361
  205DECAN   C9 2039   8.165  10.065   4.299 -0.6886 -0.0039  0.3243
  205DECAN  C10 2040   8.197  10.139   4.430 -0.2589 -0.3337  0.4056
  206DECAN   C1 2041   8.769   6.624  11.199 -0.4134  0.5673  0.1135
  206DECAN   C2 2042   8.875   6.596  11.092 -0.4413  0.3590  0.1409
  206DECAN   C3 2043   9.012   6.570  11.158 -0.1333  0.3309 -0.4920
  206DECAN   C4 2044   9.127   6.560  11.057  0.0451 -0.6246 -0.2027
  206DECAN   C5 2045   9.259   6.528  11.129 -0.1387 -0.4539  0.2136
  206DECAN   C6 2046   9.386   6.536  11.042 -0.3408 -0.6699 -0.1056
  206DECAN   C7 2047   9.516   6.527  11.125 -0.0374  0.1338 -0.4810
  206DECAN   C8 2048   9.527   6.393  11.201 -0.4279  0.3283 -0.0767
  206DECAN   C9 2049   9.655   6.390  11.286 -0.5880  0.3943  0.1676
  206DECAN  C10 2050   9.636   6.304  11.412  0.9369 -0.2631 -0.0218
  207DECAN   C1 2051   2.942   3.975   9.999 -0.2305 -0.2757 -0.1147
  207DECAN   C2 2052   3.001   3.850  10.068 -0.0885 -0.1812 -0.0646
  207DECAN   C3 2053   2.933   3.713  10.054 -0.0381 -0.2533  0.3775
  207DECAN   C4 2054   3.015   3.592  10.102  0.8773  0.0953 -0.2858
  207DECAN   C5 2055   2.995   3.570  10.253  0.4620  0.0367 -0.3483
  207DECAN   C6 2056   3.074   3.443  10.287  0.0859 -0.0667  0.1509
  207DECAN   C7 2057   3.063   3.390  10.431 -0.6802  0.1959  0.1958
  207DECAN   C8 2058   3.112   3.486  10.541  0.4742 -0.3690  0.1899
  207DECAN   C9 2059   3.101   3.432  10.685  0.0474 -0.3023  0.1831
  207DECAN  C10 2060   2.964   3.381  10.732 -0.2268  0.4903  0.2654
  208DECAN   C1 2061   2.865   4.162   4.436 -0.0246  0.1899 -0.1853
  208DECAN   C2 2062   2.982   4.250   4.390  0.2780 -0.0264  0.1638
  208DECAN   C3 2063   3.017   4.352   4.501 -0.1719  0.6048 -0.2651
  208DECAN   C4 2064   3.148   4.428   4.473  0.2249 -0.1590 -0.5233
  208DECAN   C5 2065   3.166   4.570   4.530  0.4058 -0.1893 -0.5027
  208DECAN   C6 2066   3.313   4.613   4.522  0.3984  0.0277  0.3822
  208DECAN   C7 2067   3.356   4.626   4.375  0.0081  0.5252  0.3091
  208DECAN   C8 2068   3.356   4.491   4.300  0.0814  0.6048  0.1640
  208DECAN   C9 2069   3.437   4.490   4.169  0.1333  0.1569  0.1969
  208DECAN  C10 2070   3.473   4.345   4.132  0.1086  0.1552  0.1806
  209DECAN   C1 2071   7.976   3.223   5.293  0.1524 -0.4206  0.0422
  209DECAN   C2 2072   8.110   3.159   5.252  0.3575 -0.1874  0.3449
  209DECAN   C3 2073   8.108   3.006   5.240  0.0082 -0.1519 -0.0420
  209DECAN   C4 2074   8.031   2.923   5.344  0.2760 -0.3939 -0.0335
  209DECAN   C5 2075   8.017   2.773   5.314  0.0889 -0.2725 -0.5654
  209DECAN   C6 2076   7.937   2.694   5.419  0.2965  0.6897  0.3382
  209DECAN   C7 2077   7.896   2.563   5.349  0.4436  0.7559  0.1293
  209DECAN   C8 2078   7.826   2.590   5.215  0.5667 -0.1392 -0.1262
  209DECAN   C9 2079   7.792   2.472   5.122  0.1159 -0.1715  0.0754
  209DECAN  C10 2080   7.903   2.366   5.110  0.3878  0.1502 -0.2662
  210DECAN   C1 2081   6.447   1.418  12.237 -0.3543  0.2626  0.4194
  210DECAN   C2 2082   6.334   1.329  12.291 -0.1219  0.0391  0.5423
  210DECAN   C3 2083   6.188   1.369  12.261 -0.1570 -0.2343  0.3530
  210DECAN   C4 2084   6.168   1.382  12.108  0.2623 -0.1174  0.3072
  210DECAN   C5 2085   6.172   1.252  12.025  0.0643  0.1142 -0.0649
  210DECAN   C6 2086   6.074   1.144  12.075 -0.1492  0.3796  0.0912
  210DECAN   C7 2087   6.111   1.006  12.020 -0.2731  0.3231  0.1477
  210DECAN   C8 2088   6.001   0.899  12.035  0.1793 -0.1136  0.3869
  210DECAN   C9 2089   6.026   0.771  11.952 -0.2328 -0.1573  0.3331
  210DECAN  C10 2090   5.914   0.665  11.957 -0.0831 -0.3671 -0.5498
  211DECAN   C1 2091   8.121   5.638  11.490 -0.2386 -0.0778  0.3115
  211DECAN   C2 2092   8.070   5.739  11.594  0.2892  0.1444  0.3586
  211DECAN   C3 2093   7.922   5.727  11.636  0.3284 -0.0606  0.4393
  211DECAN   C4 2094   7.871   5.825  11.744  0.0862  0.4752 -0.1577
  211DECAN   C5 2095   7.718   5.818  11.759  0.0613 -0.1726 -0.6715
  211DECAN   C6 2096   7.673   5.896  11.883  0.3487 -0.8156 -0.1558
  211DECAN   C7 2097   7.717   5.834  12.016  0.2036  0.3698  0.4652
  211DECAN   C8 2098   7.701   5.918  12.144  0.0786  0.9946  0.0442
  211DECAN   C9 2099   7.751   5.852  12.275  0.0017  0.3304 -0.2593
  211DECAN  C10 2100   7.733   5.950  12.392  0.0941 -0.4103  0.3811
  212DECAN   C1 2101   1.372   4.395  12.256  0.2195 -0.0698  0.4938
  212DECAN   C2 2102   1.422   4.313  12.376  0.2127 -0.5790  0.1531
  212DECAN   C3 2103   1.313   4.230  12.447 -0.3096 -0.4640 -0.5060
  212DECAN   C4 2104   1.176   4.290  12.482  0.1109  0.3564 -0.2433
  212DECAN   C5 2105   1.072   4.182  12.518  0.0937  0.2107 -0.7305
  212DECAN   C6 2106   1.026   4.088  12.405 -0.2466 -0.5163  0.0027
  212DECAN   C7 2107   0.961   4.159  12.285 -0.1768 -0.4791 -0.0127
  212DECAN   C8 2108   1.037   4.254  12.190 -0.4173 -0.4770 -0.2060
  212DECAN   C9 2109   0.940   4.320  12.091 -0.1820  0.0102 -0.1181
  212DECAN  C10 2110   1.017   4.409  11.991  0.2066 -0.0440  0.1316
  213DECAN   C1 2111   6.872   2.769  13.232  0.0004  0.4148  0.4716
  213DECAN   C2 2112   6.835   2.702  13.366  0.9192 -0.4158  0.3280
  213DECAN   C3 2113   6.777   2.565  13.327 -0.5410  0.2690 -0.0020
  213DECAN   C4 2114   6.692   2.497  13.436 -0.4661  0.0451 -0.0806
  213DECAN   C5 2115   6.646   2.355  13.398  0.2087 -0.1189 -0.2906
  213DECAN   C6 2116   6.524   2.297  13.472  0.0743 -0.2232 -0.5956
  213DECAN   C7 2117   6.529   2.144  13.451 -0.0091 -0.3370  0.2006
  213DECAN   C8 2118   6.639   2.081  13.539  0.4075 -0.5004 -0.4283
  213DECAN   C9 2119   6.780   2.132  13.504  0.2141  0.2980 -0.0866
  213DECAN  C10 2120   6.891   2.052  13.576 -0.2803 -0.0973  0.2445
  214DECAN   C1 2121   2.606   7.042   6.076 -0.2261 -0.4381 -0.0600
  214DECAN   C2 2122   2.459   7.032   6.120 -0.2235  0.0886  0.0751
  214DECAN   C3 2123   2.420   6.885   6.100 -0.0199  0.0407  0.0314
  214DECAN   C4 2124   2.491   6.788   6.196 -0.0433 -0.4976 -0.4889
  214DECAN   C5 2125   2.641   6.824   6.189 -0.1825  0.1009 -0.4512
  214DECAN   C6 2126   2.745   6.745   6.270 -0.2054  0.0797 -0.4425
  214DECAN   C7 2127   2.708   6.725   6.418  0.1066  0.0942 -0.3611
  214DECAN   C8 2128   2.580   6.640   6.437  0.1391  0.1262  0.0115
  214DECAN   C9 2129   2.553   6.613   6.586  0.8311 -0.7599 -0.0158
  214DECAN  C10 2130   2.418   6.541   6.602  0.1525  0.3741 -0.4800
  215DECAN   C1 2131   5.079   6.498   7.792  0.0385 -0.1939 -0.2403
  215DECAN   C2 2132   4.968   6.399   7.752 -0.2594 -0.0072  0.1159
  215DECAN   C3 2133   5.021   6.255   7.756  0.0537  0.1133  0.3661
  215DECAN   C4 2134   5.151   6.220   7.682 -0.3475 -0.6271 -0.0068
  215DECAN   C5 2135   5.210   6.082   7.715 -0.3991 -0.6336  0.0559
  215DECAN   C6 2136   5.317   6.039   7.612 -0.3509 -0.2296 -0.0642
  215DECAN   C7 2137   5.363   5.900   7.659 -0.2326 -0.4223 -0.7488
  215DECAN   C8 2138   5.245   5.800   7.652 -0.6964  0.0747 -0.1774
  215DECAN   C9 2139   5.286   5.661   7.705 -0.5225  0.4394  0.6638
  215DECAN  C10 2140   5.173   5.556   7.703  0.0612 -0.1883  0.4001
  216DECAN   C1 2141   5.878   4.387   7.424 -0.4739  0.5278  0.5757
  216DECAN   C2 2142   5.726   4.392   7.446 -0.5446 -0.3927  0.3077
  216DECAN   C3 2143   5.655   4.279   7.524 -0.8015  0.1232  0.8301
  216DECAN   C4 2144   5.670   4.149   7.442 -0.1256  0.4715  0.3935
  216DECAN   C5 2145   5.594   4.023   7.486  0.0829  0.1421 -0.1740
  216DECAN   C6 2146   5.622   3.909   7.387  0.3758  0.1995 -0.1575
  216DECAN   C7 2147   5.534   3.784   7.404  0.4293  0.1335 -0.3720
  216DECAN   C8 2148   5.533   3.685   7.285 -0.2892 -0.1327 -0.1508
  216DECAN   C9 2149   5.437   3.566   7.307 -0.1161 -0.2697 -0.1363
  216DECAN  C10 2150   5.307   3.594   7.230  0.2386  0.8271 -0.3530
  217DECAN   C1 2151   1.766   1.274   7.287 -0.5006 -0.1645 -0.0189
  217DECAN   C2 2152   1.727   1.319   7.429 -0.4006  0.1309 -0.0835
  217DECAN   C3 2153   1.804   1.442   7.479  0.5430 -0.5879  0.2556
  217DECAN   C4 2154   1.784   1.452   7.631 -0.1332  0.2308  0.1188
  217DECAN   C5 2155   1.850   1.575   7.697  0.6256 -0.0462 -0.1130
  217DECAN   C6 2156   1.837   1.595   7.849 -0.4541  0.2958 -0.2413
  217DECAN   C7 2157   1.859   1.740   7.897  0.4432  0.1995 -0.3479
  217DECAN   C8 2158   1.870   1.742   8.051 -0.3178  0.6501 -0.2920
  217DECAN   C9 2159   1.736   1.737   8.125 -0.2252 -0.3783 -0.1775
  217DECAN  C10 2160   1.653   1.608   8.146 -1.0998  0.1861 -0.0848
  218DECAN   C1 2161   2.855   6.026  10.903 -0.3520 -0.1719 -0.4692
  218DECAN   C2 2162   3.008   6.025  10.914 -0.3893 -0.3163  0.0583
  218DECAN   C3 2163   3.060   5.888  10.867 -0.4953 -0.6731  0.9595
  218DECAN   C4 2164   3.212   5.871  10.882 -0.3343  0.0222  0.1653
  218DECAN   C5 2165   3.269   5.753  10.801 -0.0601  0.1603  0.1567
  218DECAN   C6 2166   3.403   5.710  10.864  0.1663  0.6956  0.0475
  218DECAN   C7 2167   3.475   5.596  10.790 -0.5122  0.3708 -0.1193
  218DECAN   C8 2168   3.533   5.625  10.650 -0.2500  0.0920 -0.0688
  218DECAN   C9 2169   3.591   5.500  10.582 -0.0003 -0.0926  0.4788
  218DECAN  C10 2170   3.643   5.540  10.443 -0.0822  0.2863  0.5569
  219DECAN   C1 2171  10.073   5.983  11.379 -0.5460 -0.0170  0.0862
  219DECAN   C2 2172  10.116   5.863  11.465  0.4341 -0.1337 -0.5465
  219DECAN   C3 2173  10.087   5.888  11.614 -0.2484 -0.0266 -0.6954
  219DECAN   C4 2174  10.135   5.774  11.705 -0.7600  0.2199 -0.1069
  219DECAN   C5 2175  10.154   5.804  11.855 -0.1481 -0.1037 -0.1150
  219DECAN   C6 2176  10.154   5.673  11.937 -0.1606 -0.1948 -0.2594
  219DECAN   C7 2177  10.017   5.604  11.944 -0.2487 -0.0003 -0.0525
  219DECAN   C8 2178  10.019   5.464  12.007 -0.2821 -0.0191 -0.0916
  219DECAN   C9 2179   9.886   5.400  12.051 -0.3522  0.0465 -0.2116
  219DECAN  C10 2180   9.859   5.254  12.092 -0.1244 -0.0482 -0.3921
  220DECAN   C1 2181  10.000   1.583   7.823  0.1910  0.0562  0.3762
  220DECAN   C2 2182  10.094   1.705   7.833  0.1339  0.2015 -0.7263
  220DECAN   C3 2183  10.192   1.714   7.714  0.2056 -0.2413 -0.7043
  220DECAN   C4 2184  10.261   1.850   7.689  0.1980 -0.0779  0.1040
  220DECAN   C5 2185  10.366   1.865   7.577  0.0468 -0.1954 -0.0549
  220DECAN   C6 2186  10.355   2.008   7.521 -0.2977 -0.0229  0.4414
  220DECAN   C7 2187  10.462   2.031   7.412 -0.6305  0.2576  0.1727
  220DECAN   C8 2188  10.425   2.148   7.319 -0.1683 -0.0846 -0.4485
  220DECAN   C9 2189  10.400   2.280   7.394 -0.0301 -0.7163  0.7308
  220DECAN  C10 2190  10.270   2.281   7.478 -0.2915 -0.0272  0.3279
  221DECAN   C1 2191   5.772   4.400  10.005  0.0696 -0.3185  0.3947
  221DECAN   C2 2192   5.688   4.525  10.036 -0.2582 -0.5321  0.3743
  221DECAN   C3 2193   5.645   4.594   9.905 -0.3847 -0.1353  0.6227
  221DECAN   C4 2194   5.531   4.696   9.924  0.2057  0.5030  0.7872
  221DECAN   C5 2195   5.445   4.720   9.799  0.5605  0.5371  0.5482
  221DECAN   C6 2196   5.359   4.848   9.804 -0.4018 -0.0670 -0.1377
  221DECAN   C7 2197   5.237   4.850   9.710 -0.3077  0.5675 -0.2527
  221DECAN   C8 2198   5.119   4.762   9.755  0.7091 -0.3774  0.6602
  221DECAN   C9 2199   5.114   4.621   9.695 -0.6658 -0.1333  0.1654
  221DECAN  C10 2200   5.132   4.602   9.543  0.0245 -0.7350  0.3172
  222DECAN   C1 2201   6.529   3.133   9.654 -0.1456  0.4904  0.0687
  222DECAN   C2 2202   6.477   3.112   9.510 -0.1423  0.2372  0.1013
  222DECAN   C3 2203   6.483   2.967   9.458 -0.0750  0.3636 -0.2494
  222DECAN   C4 2204   6.486   2.958   9.305 -0.4148 -0.0213 -0.2335
  222DECAN   C5 2205   6.360   3.014   9.236 -0.6012  0.4094  0.4481
  222DECAN   C6 2206   6.324   3.163   9.251 -0.3609  0.4440  0.6756
  222DECAN   C7 2207   6.440   3.247   9.195 -0.5927  0.1270 -0.2924
  222DECAN   C8 2208   6.415   3.399   9.184 -0.1171  0.2422  0.1796
  222DECAN   C9 2209   6.505   3.465   9.079 -0.0801  0.0630  0.0966
  222DECAN  C10 2210   6.489   3.618   9.062 -0.1331  0.0582  0.1055
  223DECAN   C1 2211   8.021   9.626   6.750  0.0096 -0.6364  0.0597
  223DECAN   C2 2212   8.102   9.500   6.716  0.2441 -0.4473 -0.0859
  223DECAN   C3 2213   8.247   9.526   6.672  0.2448 -0.2559  0.0281
  223DECAN   C4 2214   8.291   9.399   6.596  0.3421 -0.2194  0.0217
  223DECAN   C5 2215   8.435   9.407   6.542  0.4330  0.3141  0.3377
  223DECAN   C6 2216   8.479   9.285   6.459 -0.2014  0.0608  0.3663
  223DECAN   C7 2217   8.509   9.169   6.556 -0.0275 -0.0659  0.1619
  223DECAN   C8 2218   8.621   9.213   6.654 -0.1460  0.2035  0.1781
  223DECAN   C9 2219   8.675   9.092   6.731 -0.2635  0.0184 -0.0283
  223DECAN  C10 2220   8.776   9.129   6.841 -0.4237 -0.4501  0.2831
  224DECAN   C1 2221   2.973   0.898   6.824  0.7808  0.6283 -0.2716
  224DECAN   C2 2222   3.059   0.979   6.922  0.3797  0.0288  0.5965
  224DECAN   C3 2223   2.974   1.081   7.000 -0.6912 -0.5279  0.1765
  224DECAN   C4 2224   3.031   1.141   7.130 -0.3740 -0.5688  0.0572
  224DECAN   C5 2225   2.930   1.230   7.205 -0.1624 -0.2251 -0.0631
  224DECAN   C6 2226   2.979   1.303   7.332  0.1841  0.0262 -0.3365
  224DECAN   C7 2227   3.000   1.206   7.450 -0.2810 -0.0755 -0.3321
  224DECAN   C8 2228   2.891   1.103   7.481  0.0217 -0.2210  0.2582
  224DECAN   C9 2229   2.926   0.997   7.587  0.4911 -0.2153  0.1100
  224DECAN  C10 2230   3.058   0.922   7.560  0.5820 -0.0280  0.0333
  225DECAN   C1 2231   7.751   8.560   8.470  0.3210  0.0317 -0.3440
  225DECAN   C2 2232   7.639   8.530   8.368 -0.2176  0.3875  0.1392
  225DECAN   C3 2233   7.495   8.538   8.423 -0.0413  0.9623  0.5300
  225DECAN   C4 2234   7.392   8.498   8.315  0.0164 -0.5629  1.0150
  225DECAN   C5 2235   7.247   8.480   8.363 -0.4091 -0.6175 -0.2623
  225DECAN   C6 2236   7.152   8.468   8.242 -0.1800  0.1792 -0.5288
  225DECAN   C7 2237   7.115   8.327   8.194 -0.5160 -0.0764  0.4540
  225DECAN   C8 2238   7.006   8.325   8.085  0.0812 -0.5470 -0.1506
  225DECAN   C9 2239   7.037   8.382   7.946  0.3852 -0.2527  0.0359
  225DECAN  C10 2240   7.092   8.526   7.947  0.0111 -0.1045 -0.3152
  226DECAN   C1 2241   5.738   7.298  13.991  0.0469  0.4148  0.2243
  226DECAN   C2 2242   5.686   7.316  13.847 -0.0130 -0.9477  0.0676
  226DECAN   C3 2243   5.800   7.357  13.753 -0.4330  0.1440  0.0300
  226DECAN   C4 2244   5.753   7.386  13.609 -0.0399  0.7486  0.0156
  226DECAN   C5 2245   5.860   7.450  13.519  0.0905 -0.2544 -0.5570
  226DECAN   C6 2246   5.790   7.484  13.386 -0.3737  0.9324 -0.0201
  226DECAN   C7 2247   5.865   7.562  13.276  0.5418  0.0164 -0.0563
  226DECAN   C8 2248   5.793   7.558  13.140 -0.0514  0.4375  0.2443
  226DECAN   C9 2249   5.652   7.620  13.136 -0.5337 -0.6759 -0.3608
  226DECAN  C10 2250   5.562   7.551  13.240 -0.4748 -0.0966  0.0772
  227DECAN   C1 2251   3.424   0.646  11.361  0.3805 -0.3233  0.0691
  227DECAN   C2 2252   3.450   0.535  11.464 -0.0732 -0.4113  0.0919
  227DECAN   C3 2253   3.556   0.582  11.566 -0.3716  0.1811  0.1294
  227DECAN   C4 2254   3.603   0.462  11.649 -0.1640  0.0512 -0.1727
  227DECAN   C5 2255   3.722   0.474  11.746  0.0717 -0.4147 -0.4000
  227DECAN   C6 2256   3.782   0.343  11.802  0.0154 -0.4539 -0.4321
  227DECAN   C7 2257   3.920   0.373  11.863 -0.1693 -0.5451  0.0330
  227DECAN   C8 2258   4.023   0.397  11.751  0.0961 -0.4510  0.2980
  227DECAN   C9 2259   4.163   0.397  11.816  0.1608  0.3855  0.1670
  227DECAN  C10 2260   4.283   0.450  11.735  0.3475  0.6515  0.6139
  228DECAN   C1 2261   2.785   9.727   6.352 -0.0745  0.4387  0.0094
  228DECAN   C2 2262   2.851   9.722   6.212 -0.1232 -0.1285  0.0042
  228DECAN   C3 2263   2.758   9.767   6.098 -0.4540 -1.2597 -0.1814
  228DECAN   C4 2264   2.814   9.747   5.956  0.0575  0.4763 -0.2435
  228DECAN   C5 2265   2.721   9.799   5.845 -0.1767 -0.1798 -0.3565
  228DECAN   C6 2266   2.751   9.736   5.707  0.4346 -0.2302 -0.2026
  228DECAN   C7 2267   2.685   9.806   5.587  0.6082  0.3987  0.0632
  228DECAN   C8 2268   2.702   9.741   5.449 -0.2449  0.1152  0.0841
  228DECAN   C9 2269   2.700   9.833   5.326  0.0076  0.0138  0.0023
  228DECAN  C10 2270   2.560   9.882   5.284 -0.1081 -0.4741 -0.1897
  229DECAN   C1 2271   9.481   7.059  14.907 -0.1093 -0.7784  0.0205
  229DECAN   C2 2272   9.627   7.094  14.870 -0.4860  0.4320 -0.3601
  229DECAN   C3 2273   9.696   6.980  14.795  0.0460  0.1942  0.4720
  229DECAN   C4 2274   9.849   6.989  14.775 -0.0174 -0.0154 -0.1326
  229DECAN   C5 2275   9.904   6.911  14.654 -0.4462  0.1758 -0.4571
  229DECAN   C6 2276  10.057   6.895  14.655 -0.4648  0.0080  0.0598
  229DECAN   C7 2277  10.101   6.796  14.545 -0.2331  0.0632  0.1036
  229DECAN   C8 2278  10.252   6.797  14.515 -0.2470 -0.0292  0.0275
  229DECAN   C9 2279  10.297   6.710  14.397 -0.3427  0.2890 -0.2450
  229DECAN  C10 2280  10.445   6.736  14.362 -0.2811  0.4926  0.1660
  230DECAN   C1 2281   6.976   3.221   7.803  0.2017  0.1821  0.0444
  230DECAN   C2 2282   7.076   3.123   7.739  0.0417  0.1038 -0.0853
  230DECAN   C3 2283   7.176   3.201   7.652 -0.1328  0.1577 -0.2385
  230DECAN   C4 2284   7.283   3.110   7.587 -0.5859 -0.3208 -0.3201
  230DECAN   C5 2285   7.221   3.001   7.498 -0.2892  0.0539 -0.9887
  230DECAN   C6 2286   7.329   2.919   7.425  1.0327  0.5944  0.3092
  230DECAN   C7 2287   7.346   2.957   7.276  0.6764 -0.1978  0.0632
  230DECAN   C8 2288   7.429   2.848   7.205  0.2559 -0.2134 -0.4126
  230DECAN   C9 2289   7.461   2.879   7.058  0.4197  0.5847 -0.2124
  230DECAN  C10 2290   7.524   3.020   7.051  0.8186  0.3990 -0.4046
  231DECAN   C1 2291   8.838   1.133   4.446 -0.6319  0.3716 -0.0239
  231DECAN   C2 2292   8.853   1.094   4.595  0.0333 -0.1727 -0.2295
  231DECAN   C3 2293   8.924   0.957   4.600  0.0959 -0.1186  0.4395
  231DECAN   C4 2294   8.854   0.845   4.520  0.2428  0.1379 -0.0520
  231DECAN   C5 2295   8.711   0.826   4.573  0.1653  0.3314 -0.1892
  231DECAN   C6 2296   8.604   0.763   4.482 -0.2038  0.2509  0.3001
  231DECAN   C7 2297   8.460   0.745   4.533 -0.4985  0.8615 -0.2931
  231DECAN   C8 2298   8.379   0.641   4.453  0.1381  0.4383 -0.3956
  231DECAN   C9 2299   8.237   0.604   4.501  0.4848  0.0672  0.3481
  231DECAN  C10 2300   8.150   0.722   4.547 -0.1576 -0.3364  0.1694
  232DECAN   C1 2301   6.489   5.903   6.829  0.3074 -0.4687  0.4629
  232DECAN   C2 2302   6.357   5.922   6.904 -0.1099  0.6168 -0.5129
  232DECAN   C3 2303   6.249   5.815   6.879  0.2710  0.2342 -0.5293
  232DECAN   C4 2304   6.292   5.681   6.943 -0.3558 -0.0125 -0.6179
  232DECAN   C5 2305   6.425   5.634   6.883  0.2782  0.6216  0.2528
  232DECAN   C6 2306   6.473   5.493   6.921 -0.7364  0.0508 -0.5207
  232DECAN   C7 2307   6.608   5.451   6.859 -0.5289  0.2140 -0.1846
  232DECAN   C8 2308   6.692   5.365   6.955 -0.3957  0.4736 -0.0665
  232DECAN   C9 2309   6.658   5.216   6.935 -0.4100  0.4327  0.2704
  232DECAN  C10 2310   6.521   5.172   6.992 -0.2591 -0.2474  0.1203
  233DECAN   C1 2311   6.117   9.488   9.827 -0.3099 -0.0773  0.2468
  233DECAN   C2 2312   5.970   9.475   9.783 -0.3853 -0.1815  0.5250
  233DECAN   C3 2313   5.943   9.417   9.642  0.4047 -0.0331  0.3085
  233DECAN   C4 2314   5.798   9.400   9.594  0.4282  0.4710  0.0423
  233DECAN   C5 2315   5.799   9.349   9.449 -0.2746 -0.0822  0.2224
  233DECAN   C6 2316   5.662   9.333   9.380 -0.1319 -0.1393 -0.0500
  233DECAN   C7 2317   5.579   9.236   9.466 -0.6752 -0.0721 -0.5000
  233DECAN   C8 2318   5.543   9.282   9.608  0.1676 -0.0964 -0.2786
  233DECAN   C9 2319   5.474   9.170   9.689 -0.2530  0.2777 -0.1135
  233DECAN  C10 2320   5.350   9.100   9.632 -0.2759  0.2541 -0.0345
  234DECAN   C1 2321   8.799   5.690  10.013 -0.5317 -0.3398  0.1050
  234DECAN   C2 2322   8.799   5.547   9.956  0.0271 -0.4526  0.3741
  234DECAN   C3 2323   8.813   5.557   9.803  0.5398 -0.0398  0.4438
  234DECAN   C4 2324   8.811   5.422   9.729 -0.3269 -0.0951  0.5499
  234DECAN   C5 2325   8.758   5.437   9.586 -0.4821 -0.4712  0.5651
  234DECAN   C6 2326   8.718   5.316   9.499  0.0015  0.1109 -0.4931
  234DECAN   C7 2327   8.834   5.222   9.460  0.0193 -0.0058 -0.1693
  234DECAN   C8 2328   8.796   5.113   9.359 -0.4135  0.4028 -0.4532
  234DECAN   C9 2329   8.713   5.004   9.430 -0.6661  0.1292 -1.1549
  234DECAN  C10 2330   8.709   4.872   9.352 -0.1267 -0.1226 -0.7586
  235DECAN   C1 2331   4.000   8.133   6.966  0.2986 -0.0775  0.5033
  235DECAN   C2 2332   3.954   8.227   6.853  0.3080 -0.3112  0.3047
  235DECAN   C3 2333   3.989   8.179   6.711 -0.0427  0.2164  0.0396
  235DECAN   C4 2334   3.971   8.273   6.590  0.2323 -0.4217 -0.5005
  235DECAN   C5 2335   3.822   8.298   6.562  0.1208 -0.0146  0.4388
  235DECAN   C6 2336   3.811   8.412   6.458 -0.4280 -0.6614 -0.2219
  235DECAN   C7 2337   3.672   8.475   6.437 -0.3354 -0.2386  0.4129
  235DECAN   C8 2338   3.676   8.599   6.347  0.2388 -0.1035  0.6172
  235DECAN   C9 2339   3.543   8.677   6.343  0.3106 -0.0217 -0.3985
  235DECAN  C10 2340   3.535   8.765   6.469 -0.0380 -0.4275 -0.1347
  236DECAN   C1 2341   9.398   8.535  11.247 -0.7794  0.1038 -0.2055
  236DECAN   C2 2342   9.391   8.418  11.146 -0.3824 -0.2046  0.1178
  236DECAN   C3 2343   9.367   8.464  11.001  0.8875  0.2007  0.0273
  236DECAN   C4 2344   9.374   8.357  10.891  0.7444  0.1576  0.0594
  236DECAN   C5 2345   9.384   8.410  10.746  0.2159 -0.2197 -0.1189
  236DECAN   C6 2346   9.338   8.297  10.653  0.8434 -0.2651 -0.3743
  236DECAN   C7 2347   9.225   8.217  10.720  0.4215 -0.2108 -1.0078
  236DECAN   C8 2348   9.102   8.304  10.751  0.5735 -0.3715  0.0977
  236DECAN   C9 2349   8.974   8.227  10.787  0.3350 -0.0328 -0.0325
  236DECAN  C10 2350   9.006   8.107  10.877  0.0408  0.1962  0.3786
  237DECAN   C1 2351   3.650   8.821  13.141  0.0418 -0.3920  0.1387
  237DECAN   C2 2352   3.609   8.963  13.184  0.4022 -0.0041 -0.7778
  237DECAN   C3 2353   3.724   9.058  13.221  0.5806 -0.6541  0.3885
  237DECAN   C4 2354   3.671   9.199  13.255  0.1560 -0.6551 -0.2498
  237DECAN   C5 2355   3.598   9.270  13.139  0.3673 -0.1196 -0.0587
  237DECAN   C6 2356   3.555   9.411  13.181 -0.4545 -0.4029  0.0643
  237DECAN   C7 2357   3.472   9.494  13.080 -0.1822 -0.3455 -0.1123
  237DECAN   C8 2358   3.473   9.638  13.134  0.2173 -0.4208  0.0879
  237DECAN   C9 2359   3.412   9.736  13.031 -0.7731 -0.3779  0.7023
  237DECAN  C10 2360   3.330   9.850  13.093 -0.4056  0.2676  0.0097
  238DECAN   C1 2361   9.528   8.380  13.481 -0.2146 -0.0620  0.1050
  238DECAN   C2 2362   9.614   8.334  13.362 -0.1255  0.9387 -0.2227
  238DECAN   C3 2363   9.526   8.335  13.236  0.5012  0.1241 -0.6765
  238DECAN   C4 2364   9.455   8.469  13.208 -0.2125  0.0009  0.5016
  238DECAN   C5 2365   9.550   8.590  13.219  0.2286 -0.3516  0.6015
  238DECAN   C6 2366   9.468   8.720  13.218  0.3517 -0.2772 -0.1529
  238DECAN   C7 2367   9.379   8.731  13.093  0.1133 -0.3650  0.0097
  238DECAN   C8 2368   9.320   8.874  13.091  0.1238 -0.3638 -0.4421
  238DECAN   C9 2369   9.229   8.896  12.970 -0.4201 -0.2347 -0.0120
  238DECAN  C10 2370   9.193   9.041  12.935  0.6679  0.0505  0.0472
  239DECAN   C1 2371   2.160   6.424  11.041 -0.4192  0.0038  0.0088
  239DECAN   C2 2372   2.121   6.280  11.002 -0.9155  0.0499  0.3222
  239DECAN   C3 2373   2.155   6.173  11.108  0.2537  0.6485  0.5717
  239DECAN   C4 2374   2.048   6.162  11.219 -0.6009  0.4575 -0.2566
  239DECAN   C5 2375   1.923   6.078  11.191  0.2177 -0.7817 -0.2918
  239DECAN   C6 2376   1.817   6.137  11.096  0.1924  0.3409  0.4053
  239DECAN   C7 2377   1.677   6.101  11.150  0.1413 -0.2242 -0.0860
  239DECAN   C8 2378   1.632   5.957  11.121 -0.2881 -0.0196 -0.4435
  239DECAN   C9 2379   1.649   5.863  11.241 -0.0840  0.1163 -0.3669
  239DECAN  C10 2380   1.598   5.718  11.224 -0.3979  0.1881 -0.0569
  240DECAN   C1 2381   8.840   1.053   9.290  0.1213  0.1009 -0.2776
  240DECAN   C2 2382   8.748   1.114   9.183 -0.5737 -0.2027  0.1440
  240DECAN   C3 2383   8.713   1.020   9.066 -0.2225  0.5181 -0.5535
  240DECAN   C4 2384   8.606   0.912   9.095  0.1927  0.1189 -0.4944
  240DECAN   C5 2385   8.553   0.811   8.991  0.0059 -0.3748  0.0787
  240DECAN   C6 2386   8.440   0.721   9.043  0.5620 -0.6550  0.8317
  240DECAN   C7 2387   8.385   0.612   8.948 -0.0428  0.1280  0.2667
  240DECAN   C8 2388   8.486   0.497   8.930 -0.5574 -0.2035 -0.5476
  240DECAN   C9 2389   8.529   0.425   9.059 -0.5210  0.0249 -0.4314
  240DECAN  C10 2390   8.635   0.317   9.031  0.2054  0.4072  0.7721
  241DECAN   C1 2391   7.647   8.692  13.171 -0.0276  0.2929 -0.5758
  241DECAN   C2 2392   7.669   8.693  13.323 -0.6728 -0.0816 -0.4756
  241DECAN   C3 2393   7.622   8.566  13.396 -0.2238  0.0131 -0.0125
  241DECAN   C4 2394   7.662   8.434  13.328 -0.4748 -0.1098  0.0780
  241DECAN   C5 2395   7.607   8.396  13.189 -0.1074 -0.1697 -0.0513
  241DECAN   C6 2396   7.633   8.251  13.147 -1.1141 -0.5008  0.4381
  241DECAN   C7 2397   7.583   8.221  13.004 -0.5139  0.4536  0.0177
  241DECAN   C8 2398   7.634   8.079  12.972 -0.4899  0.5000 -0.1511
  241DECAN   C9 2399   7.588   8.017  12.839  0.1995 -0.1303 -0.1040
  241DECAN  C10 2400   7.661   7.890  12.791 -0.4296 -0.3040 -0.6136
  242DECAN   C1 2401   9.337   1.773  13.784 -0.0823 -0.8623  0.4724
  242DECAN   C2 2402   9.469   1.712  13.735  0.0182 -0.0036 -0.3334
  242DECAN   C3 2403   9.461   1.694  13.582  0.1549 -0.3499 -0.3002
  242DECAN   C4 2404   9.357   1.592  13.533  0.0997 -0.6286  0.3852
  242DECAN   C5 2405   9.316   1.610  13.386  0.1644 -0.2586  0.4096
  242DECAN   C6 2406   9.231   1.498  13.322 -0.1253  0.1709  0.0377
  242DECAN   C7 2407   9.204   1.519  13.172  0.6105 -0.5169 -0.1993
  242DECAN   C8 2408   9.120   1.402  13.117 -0.0835 -0.2047  0.1777
  242DECAN   C9 2409   9.108   1.405  12.963  0.1384  0.1842  0.1663
  242DECAN  C10 2410   9.034   1.285  12.901  0.4897  0.3387 -0.5576
  243DECAN   C1 2411   2.087   5.817  12.598 -0.4699  0.3020 -0.0560
  243DECAN   C2 2412   2.188   5.735  12.681 -0.1131  0.4630 -0.3272
  243DECAN   C3 2413   2.130   5.629  12.777  0.4161  0.2396 -0.2499
  243DECAN   C4 2414   2.094   5.702  12.908 -0.1451 -0.0702 -0.2312
  243DECAN   C5 2415   2.023   5.632  13.025  0.3779 -0.1176  0.0586
  243DECAN   C6 2416   2.003   5.726  13.145 -0.5697 -0.2207 -0.0158
  243DECAN   C7 2417   1.898   5.836  13.122 -0.2174  0.0070 -0.5447
  243DECAN   C8 2418   1.871   5.947  13.225  0.2126 -0.1185 -0.2937
  243DECAN   C9 2419   1.746   6.031  13.192 -0.1953 -0.7302 -0.3226
  243DECAN  C10 2420   1.764   6.146  13.091 -0.4532 -0.3540  0.0603
  244DECAN   C1 2421   4.520   7.892  15.022 -0.2785 -0.6986 -0.4810
  244DECAN   C2 2422   4.376   7.845  14.994 -0.3634 -0.6681 -0.1026
  244DECAN   C3 2423   4.290   7.884  15.115 -0.1259  0.1791 -0.1975
  244DECAN   C4 2424   4.141   7.850  15.095 -0.0295 -0.0808 -0.4691
  244DECAN   C5 2425   4.063   7.968  15.035 -0.5543 -0.2293 -0.0866
  244DECAN   C6 2426   4.066   7.986  14.882 -0.3494 -0.4997 -0.1152
  244DECAN   C7 2427   4.019   8.122  14.829  0.1025 -0.2048  0.2395
  244DECAN   C8 2428   3.885   8.164  14.893  0.1600 -0.6378  0.6432
  244DECAN   C9 2429   3.899   8.201  15.042 -0.3817  0.2903  0.4686
  244DECAN  C10 2430   3.758   8.223  15.099 -0.6207  0.6990 -0.2563
  245DECAN   C1 2431   9.802   4.344  14.740 -0.2819 -0.0067 -0.1615
  245DECAN   C2 2432   9.755   4.311  14.597 -0.0825 -0.2708 -0.1685
  245DECAN   C3 2433   9.857   4.229  14.517  0.2474 -0.6465  0.6232
  245DECAN   C4 2434   9.989   4.302  14.486 -0.0649 -0.4897 -0.3878
  245DECAN   C5 2435  10.079   4.303  14.611 -0.3381  0.2983 -0.1936
  245DECAN   C6 2436  10.117   4.158  14.648  0.4155  0.6057  0.2655
  245DECAN   C7 2437  10.192   4.169  14.782  0.3824  0.1331  0.3221
  245DECAN   C8 2438  10.236   4.028  14.827  0.3762  0.0419  0.0451
  245DECAN   C9 2439  10.361   3.969  14.760  0.2653 -0.0449 -0.0854
  245DECAN  C10 2440  10.351   4.001  14.609  0.2762 -0.1782 -0.1148
  246DECAN   C1 2441   7.182   5.748   8.580  0.4260  0.8562 -0.3076
  246DECAN   C2 2442   7.077   5.855   8.618  0.0773  0.4449 -0.1079
  246DECAN   C3 2443   7.075   5.862   8.772 -0.4146 -0.0618 -0.0860
  246DECAN   C4 2444   6.989   5.978   8.827  0.1973  0.4077 -0.0981
  246DECAN   C5 2445   6.977   5.967   8.980 -0.7267 -0.1700 -0.1973
  246DECAN   C6 2446   6.920   6.098   9.037 -0.1171 -0.2355  0.5834
  246DECAN   C7 2447   6.774   6.100   8.987 -0.0631 -0.2825  0.4243
  246DECAN   C8 2448   6.689   6.214   9.046 -0.5283 -0.4151  0.0102
  246DECAN   C9 2449   6.540   6.180   9.026 -0.5755  0.0022 -0.3676
  246DECAN  C10 2450   6.443   6.269   9.106 -0.7638 -0.4094 -0.1355
  247DECAN   C1 2451  10.413   5.468  10.233 -0.3250 -0.1262 -0.6005
  247DECAN   C2 2452  10.520   5.431  10.128 -0.0088 -0.0942 -0.2934
  247DECAN   C3 2453  10.583   5.558  10.068  0.1985 -0.3776 -0.6766
  247DECAN   C4 2454  10.653   5.546   9.931 -0.1550 -0.4907 -0.8480
  247DECAN   C5 2455  10.785   5.469   9.939  0.1983  0.1770 -0.0701
  247DECAN   C6 2456  10.848   5.465   9.798  0.3938  0.4876  0.0085
  247DECAN   C7 2457  10.975   5.377   9.789  0.1313  0.1020  0.0888
  247DECAN   C8 2458  11.004   5.366   9.639  0.4404  0.3760  0.1294
  247DECAN   C9 2459  10.888   5.335   9.544  0.3460  0.1490  0.3189
  247DECAN  C10 2460  10.945   5.296   9.406 -0.9249 -0.3035 -0.0995
  248DECAN   C1 2461   5.505   5.335  11.178 -0.2812 -0.1132 -0.1182
  248DECAN   C2 2462   5.600   5.403  11.078  0.2003 -0.2304  0.2521
  248DECAN   C3 2463   5.696   5.295  11.025  0.2112 -0.1266  0.0590
  248DECAN   C4 2464   5.788   5.236  11.132 -0.3109 -0.2830  0.4230
  248DECAN   C5 2465   5.912   5.154  11.091 -0.3573 -0.0357 -0.2178
  248DECAN   C6 2466   5.984   5.083  11.207 -0.6941  0.3535  0.2331
  248DECAN   C7 2467   6.066   5.176  11.299  0.3205 -0.2316 -0.0691
  248DECAN   C8 2468   6.148   5.114  11.413  0.2315 -0.5075 -0.1550
  248DECAN   C9 2469   6.248   5.211  11.479  0.0066 -0.2905 -0.1335
  248DECAN  C10 2470   6.337   5.150  11.589  0.2501 -0.0960 -0.2225
  249DECAN   C1 2471   8.294   9.075  15.147 -0.0322 -0.2606 -0.3730
  249DECAN   C2 2472   8.410   9.149  15.077 -0.1197  0.2360  0.0011
  249DECAN   C3 2473   8.545   9.082  15.111  0.0914  0.4478 -0.4100
  249DECAN   C4 2474   8.668   9.164  15.067  0.3126 -0.0907 -0.8083
  249DECAN   C5 2475   8.799   9.087  15.091  0.0343 -0.3296 -0.0218
  249DECAN   C6 2476   8.919   9.138  15.009  0.0697  0.4364  0.4881
  249DECAN   C7 2477   8.953   9.287  15.021  0.1258  0.4802 -0.1767
  249DECAN   C8 2478   8.834   9.384  15.030 -0.1801  0.1321 -0.4453
  249DECAN   C9 2479   8.867   9.520  15.095 -0.1758  0.0278 -0.2274
  249DECAN  C10 2480   8.758   9.628  15.079 -0.0082  0.2916  0.3916
  250DECAN   C1 2481   3.155   7.129  12.120 -0.0067 -0.7490  0.4821
  250DECAN   C2 2482   3.235   7.231  12.203 -0.1172 -0.0661 -0.2411
  250DECAN   C3 2483   3.363   7.293  12.142  0.8772 -0.6892  1.1455
  250DECAN   C4 2484   3.425   7.412  12.217 -0.2362  0.2291  0.6433
  250DECAN   C5 2485   3.557   7.473  12.165 -0.0483 -0.4336  0.3371
  250DECAN   C6 2486   3.577   7.620  12.206 -0.4794 -0.2484 -0.1066
  250DECAN   C7 2487   3.588   7.634  12.359 -0.3960 -0.2447 -0.1131
  250DECAN   C8 2488   3.462   7.592  12.436 -0.8153  0.2592 -0.5175
  250DECAN   C9 2489   3.476   7.610  12.589 -0.0721 -0.3445 -0.5086
  250DECAN  C10 2490   3.339   7.575  12.650  0.0260 -0.0954 -0.1470
  251DECAN   C1 2491  10.035   3.054   9.845 -0.1105  0.1532 -0.5613
  251DECAN   C2 2492  10.073   3.198   9.805 -0.0486  0.3447  0.1725
  251DECAN   C3 2493   9.958   3.298   9.786 -0.0745  0.3405  0.3145
  251DECAN   C4 2494  10.003   3.426   9.712  0.2766  0.0236 -0.0219
  251DECAN   C5 2495   9.915   3.552   9.704  0.2230 -0.0384 -0.4288
  251DECAN   C6 2496   9.802   3.534   9.601 -0.1869 -0.4534  0.0868
  251DECAN   C7 2497   9.864   3.526   9.461 -0.0801  0.6575  0.0548
  251DECAN   C8 2498   9.760   3.497   9.350  0.1650 -0.3035  0.0610
  251DECAN   C9 2499   9.831   3.449   9.222  1.2169  0.2260  0.4263
  251DECAN  C10 2500   9.915   3.554   9.147  0.4715  0.3349 -0.2702
  252DECAN   C1 2501   1.215   4.242   8.470 -0.3421 -0.0914 -0.2610
  252DECAN   C2 2502   1.301   4.269   8.345 -0.0123 -0.9744 -0.2320
  252DECAN   C3 2503   1.237   4.321   8.214  0.3178  0.0754  0.0111
  252DECAN   C4 2504   1.330   4.329   8.092  0.1119 -0.1942 -0.1660
  252DECAN   C5 2505   1.267   4.401   7.972  0.1332  0.2979  0.1139
  252DECAN   C6 2506   1.365   4.413   7.853 -0.0104  0.4180  0.0061
  252DECAN   C7 2507   1.290   4.446   7.723  0.2184  0.8517 -0.0165
  252DECAN   C8 2508   1.369   4.404   7.598 -0.2127  0.1368 -0.0538
  252DECAN   C9 2509   1.328   4.488   7.476 -0.2507  0.0876 -0.0754
  252DECAN  C10 2510   1.419   4.456   7.356  0.2480 -0.0968  0.3482
  253DECAN   C1 2511   9.582   2.835  12.150  0.3085 -0.1348 -0.3535
  253DECAN   C2 2512   9.556   2.718  12.053  0.0313 -0.1182 -0.2985
  253DECAN   C3 2513   9.448   2.751  11.948  0.0370  0.0517 -0.2536
  253DECAN   C4 2514   9.435   2.640  11.842  0.0633 -0.1698 -0.0278
  253DECAN   C5 2515   9.349   2.662  11.716 -0.1623 -0.2079  0.1201
  253DECAN   C6 2516   9.376   2.564  11.601 -0.4280  0.2363 -0.3263
  253DECAN   C7 2517   9.317   2.618  11.469 -0.6220 -0.0565 -0.3626
  253DECAN   C8 2518   9.337   2.530  11.345 -0.0879 -0.3512 -0.0728
  253DECAN   C9 2519   9.485   2.520  11.305 -0.1581  0.1165 -0.4601
  253DECAN  C10 2520   9.553   2.654  11.273  0.0665 -0.1613 -1.1553
  254DECAN   C1 2521   3.838   2.524   6.653 -0.4038  0.1703 -0.1617
  254DECAN   C2 2522   3.748   2.628   6.723 -0.2560  0.2676 -0.1161
  254DECAN   C3 2523   3.795   2.656   6.867  0.0240 -0.3895 -0.0768
  254DECAN   C4 2524   3.945   2.689   6.873 -0.1777  0.5745 -0.2965
  254DECAN   C5 2525   3.978   2.762   7.005 -0.2738 -0.0218  0.0581
  254DECAN   C6 2526   4.119   2.823   7.006 -0.3914  0.2731 -0.5553
  254DECAN   C7 2527   4.156   2.888   7.141 -0.8984 -0.2614 -0.1557
  254DECAN   C8 2528   4.104   2.807   7.262 -0.3241 -0.7677 -0.2438
  254DECAN   C9 2529   4.156   2.857   7.398  0.0719 -0.6618 -0.4328
  254DECAN  C10 2530   4.106   2.784   7.523  0.2160 -0.0537 -0.0153
  255DECAN   C1 2531   9.399   7.147   3.951  0.1979 -0.5891 -0.0488
  255DECAN   C2 2532   9.346   7.168   4.094 -0.9419  0.2262 -0.5713
  255DECAN   C3 2533   9.238   7.277   4.103 -0.7840  0.3877 -0.6040
  255DECAN   C4 2534   9.111   7.222   4.035 -0.7080  0.0585 -0.4848
  255DECAN   C5 2535   9.001   7.330   4.043 -0.2494  0.5544 -0.7557
  255DECAN   C6 2536   8.870   7.286   3.976 -0.2480 -0.7322  0.0349
  255DECAN   C7 2537   8.761   7.394   3.983  0.3194 -0.1369 -0.2067
  255DECAN   C8 2538   8.626   7.357   3.918  0.5060 -0.4646 -0.4096
  255DECAN   C9 2539   8.637   7.300   3.775  0.2587  0.1376 -0.6759
  255DECAN  C10 2540   8.503   7.294   3.700  0.2875  1.0709 -0.8059
  256DECAN   C1 2541   7.211   8.289  13.250 -0.2129 -0.1937  0.0068
  256DECAN   C2 2542   7.071   8.347  13.276  0.0759  0.4210  0.1898
  256DECAN   C3 2543   7.007   8.348  13.416 -0.4487 -0.2890 -0.0398
  256DECAN   C4 2544   6.986   8.213  13.488 -0.2494 -0.4690 -0.3173
  256DECAN   C5 2545   6.923   8.224  13.628  0.1967 -0.2996 -0.1255
  256DECAN   C6 2546   6.926   8.085  13.694  0.4125 -0.1446  0.1891
  256DECAN   C7 2547   6.847   7.982  13.613  0.4436 -0.0488  0.0382
  256DECAN   C8 2548   6.828   8.010  13.462  0.3478 -0.8820 -0.1098
  256DECAN   C9 2549   6.741   7.903  13.394 -0.4196 -0.0811 -0.3913
  256DECAN  C10 2550   6.727   7.912  13.241 -0.7343  0.4276 -0.3378
  257DECAN   C1 2551   8.230   9.292  11.193 -0.2937 -0.7448 -0.5279
  257DECAN   C2 2552   8.179   9.198  11.304 -0.0968 -0.3465 -0.0954
  257DECAN   C3 2553   8.282   9.163  11.413 -0.0340 -0.0688 -0.0658
  257DECAN   C4 2554   8.236   9.033  11.482  0.2915 -0.2735 -0.2306
  257DECAN   C5 2555   8.340   8.981  11.582 -0.1845 -0.1420  0.3392
  257DECAN   C6 2556   8.314   8.851  11.662  0.1742 -0.2425  0.2960
  257DECAN   C7 2557   8.414   8.827  11.776  0.0478  0.4343  0.5548
  257DECAN   C8 2558   8.373   8.734  11.892 -0.0716 -0.1709  0.0340
  257DECAN   C9 2559   8.471   8.738  12.011  0.3987  0.0062 -0.3581
  257DECAN  C10 2560   8.445   8.633  12.121  0.4800  0.0691 -0.2790
  258DECAN   C1 2561   8.263   7.113  12.018 -0.1313  0.1188 -0.5269
  258DECAN   C2 2562   8.178   7.233  12.064 -0.3629 -0.1599 -0.2189
  258DECAN   C3 2563   8.158   7.342  11.956  0.0235  0.3478  0.2162
  258DECAN   C4 2564   8.030   7.312  11.877  0.1992  0.6791 -0.1944
  258DECAN   C5 2565   8.006   7.415  11.764  0.0634  0.4921 -0.3350
  258DECAN   C6 2566   7.880   7.388  11.680 -0.0063 -0.1296 -0.0386
  258DECAN   C7 2567   7.836   7.526  11.628 -0.1633  0.0304  0.5059
  258DECAN   C8 2568   7.711   7.521  11.538  0.1010 -0.1557  0.1457
  258DECAN   C9 2569   7.567   7.527  11.594 -0.0322  0.5767 -0.2630
  258DECAN  C10 2570   7.455   7.556  11.492  0.1871  0.5227 -0.5212
  259DECAN   C1 2571   7.438   8.474   6.145  0.0157 -0.3897 -0.1706
  259DECAN   C2 2572   7.368   8.398   6.260  0.2864 -0.1358  0.1642
  259DECAN   C3 2573   7.380   8.245   6.251 -0.4484 -0.1977  0.1595
  259DECAN   C4 2574   7.495   8.189   6.337 -0.2267  0.3482  0.2237
  259DECAN   C5 2575   7.460   8.182   6.487 -0.6770 -0.6232  0.0831
  259DECAN   C6 2576   7.565   8.110   6.574 -0.6267 -0.3023  0.2909
  259DECAN   C7 2577   7.506   8.080   6.712 -0.3460  0.1294  0.5080
  259DECAN   C8 2578   7.575   7.987   6.814 -0.0073 -0.1893 -0.0106
  259DECAN   C9 2579   7.713   8.035   6.863  0.0972 -0.3533 -0.1417
  259DECAN  C10 2580   7.751   7.959   6.992 -0.2685 -0.1874  0.0649
  260DECAN   C1 2581   6.027   8.615   8.648  0.4202 -0.2046 -0.2283
  260DECAN   C2 2582   6.164   8.621   8.578  0.1821 -0.2892 -0.7058
  260DECAN   C3 2583   6.210   8.763   8.543  0.1443 -0.1739 -0.2933
  260DECAN   C4 2584   6.334   8.761   8.451  0.5576 -0.3649  0.2625
  260DECAN   C5 2585   6.406   8.896   8.438  0.0185 -0.0601  0.3834
  260DECAN   C6 2586   6.551   8.867   8.392 -0.0320  0.7025 -0.2720
  260DECAN   C7 2587   6.614   8.781   8.503 -0.0517  0.4956 -0.4193
  260DECAN   C8 2588   6.768   8.789   8.499 -0.0339  0.1491 -0.4130
  260DECAN   C9 2589   6.833   8.700   8.607 -0.2795 -0.3095 -0.6419
  260DECAN  C10 2590   6.937   8.599   8.554  0.0653 -0.1833 -0.2007
  261DECAN   C1 2591   4.473   6.635   8.287 -0.1738  0.0135 -0.3145
  261DECAN   C2 2592   4.335   6.692   8.247  0.1228  0.8861 -0.1017
  261DECAN   C3 2593   4.324   6.834   8.188  0.0362  0.7979 -0.2965
  261DECAN   C4 2594   4.394   6.840   8.051  0.6312 -0.5841 -0.0718
  261DECAN   C5 2595   4.401   6.984   7.998  0.2170 -0.5179  0.0487
  261DECAN   C6 2596   4.503   7.073   8.071  0.2443 -0.2288 -0.3399
  261DECAN   C7 2597   4.488   7.222   8.034 -0.0891 -0.1864 -0.0406
  261DECAN   C8 2598   4.573   7.311   8.126  0.0638  0.0567 -0.4157
  261DECAN   C9 2599   4.511   7.300   8.266  0.1086 -0.1835 -0.4151
  261DECAN  C10 2600   4.587   7.380   8.374 -0.2821  0.0933 -0.3442
  262DECAN   C1 2601   9.355   6.602  12.852  0.0768 -0.8761  0.1255
  262DECAN   C2 2602   9.380   6.561  12.998  0.0269 -0.1486  0.3408
  262DECAN   C3 2603   9.504   6.476  13.030  0.0351 -0.3865 -0.2978
  262DECAN   C4 2604   9.632   6.560  13.010  0.1248 -0.5594 -0.4449
  262DECAN   C5 2605   9.639   6.592  12.859  0.0257 -0.0829 -0.3492
  262DECAN   C6 2606   9.767   6.668  12.823  0.0396  0.3613  0.5959
  262DECAN   C7 2607   9.901   6.595  12.847  0.2398  0.5923  0.2004
  262DECAN   C8 2608   9.958   6.539  12.716 -0.1854  0.7183 -0.0394
  262DECAN   C9 2609  10.098   6.480  12.736 -0.4000  0.0007 -0.6184
  262DECAN  C10 2610  10.220   6.571  12.756 -0.2734 -0.2080 -0.4349
  263DECAN   C1 2611   8.541   3.168  12.537 -0.5364 -0.0246  0.3878
  263DECAN   C2 2612   8.613   3.241  12.421 -0.7765 -0.2483  0.0946
  263DECAN   C3 2613   8.577   3.189  12.281  0.3316  0.7103 -0.5644
  263DECAN   C4 2614   8.429   3.199  12.242 -0.0019  0.2499  0.5469
  263DECAN   C5 2615   8.346   3.141  12.358  0.2381 -0.6808  0.2570
  263DECAN   C6 2616   8.208   3.088  12.314  0.1255  0.1579 -0.4141
  263DECAN   C7 2617   8.141   2.993  12.415  0.3410  0.6689  0.2108
  263DECAN   C8 2618   8.193   2.848  12.420 -0.7502  0.2781  0.4762
  263DECAN   C9 2619   8.122   2.759  12.524 -0.2532  0.0319  0.6083
  263DECAN  C10 2620   8.174   2.614  12.528  0.4360  0.2830  0.8474
  264DECAN   C1 2621   9.912   7.981   6.649  0.3548 -0.2956 -0.0775
  264DECAN   C2 2622   9.822   7.914   6.754 -0.1929  0.2418 -0.1999
  264DECAN   C3 2623   9.671   7.941   6.741 -0.2027  0.4566  0.3444
  264DECAN   C4 2624   9.597   7.895   6.614 -0.0237 -0.1674  0.4614
  264DECAN   C5 2625   9.444   7.885   6.627 -0.1545  0.7861 -0.2228
  264DECAN   C6 2626   9.396   7.859   6.771 -0.1580 -0.3995 -0.4279
  264DECAN   C7 2627   9.246   7.845   6.803 -0.0694  0.0374  0.1769
  264DECAN   C8 2628   9.214   7.865   6.953 -0.2230  0.6876  0.0586
  264DECAN   C9 2629   9.277   7.984   7.027  0.6719  0.0075  0.3979
  264DECAN  C10 2630   9.211   8.008   7.165  0.2448  0.0626  0.1860
  265DECAN   C1 2631   6.583   2.054   5.295 -0.5000 -0.0657  0.5042
  265DECAN   C2 2632   6.518   1.925   5.243  0.4950 -0.3637 -0.0190
  265DECAN   C3 2633   6.578   1.883   5.107  0.0886  0.0535 -0.3304
  265DECAN   C4 2634   6.724   1.849   5.142  0.0466  0.1915 -0.0167
  265DECAN   C5 2635   6.808   1.815   5.018 -0.1097  0.3549 -0.1679
  265DECAN   C6 2636   6.961   1.797   5.030 -0.2284 -0.4135  0.2241
  265DECAN   C7 2637   7.024   1.774   4.891 -0.0869 -0.1000  0.2352
  265DECAN   C8 2638   7.175   1.800   4.901  0.0227 -0.6925  0.1306
  265DECAN   C9 2639   7.240   1.795   4.761  0.0401  0.9759  0.0662
  265DECAN  C10 2640   7.387   1.840   4.748  0.2650  0.2683  0.1256
  266DECAN   C1 2641   5.458  10.903   5.818 -0.2827 -0.5607  0.0715
  266DECAN   C2 2642   5.471  10.757   5.864  0.4592 -0.4937  0.0981
  266DECAN   C3 2643   5.344  10.724   5.945  0.0422 -0.4179 -0.5193
  266DECAN   C4 2644   5.293  10.831   6.044 -0.4145 -0.6771 -0.4687
  266DECAN   C5 2645   5.388  10.852   6.163 -0.6808 -0.1816 -0.3407
  266DECAN   C6 2646   5.337  10.935   6.282 -0.0017  0.1804 -0.2909
  266DECAN   C7 2647   5.409  10.908   6.415 -0.4746 -0.0931 -0.0860
  266DECAN   C8 2648   5.382  10.766   6.468 -0.6825  0.0485  0.1912
  266DECAN   C9 2649   5.427  10.738   6.613 -0.0320  0.2728  0.0365
  266DECAN  C10 2650   5.382  10.594   6.645  0.1344  0.0781 -0.5910
  267DECAN   C1 2651   9.239   0.988  13.004  0.0812 -0.3463  0.7112
  267DECAN   C2 2652   9.185   0.877  12.911 -0.7560  0.8446 -0.2657
  267DECAN   C3 2653   9.267   0.857  12.782 -0.9573 -0.2280 -0.2338
  267DECAN   C4 2654   9.227   0.753  12.676 -0.5219 -0.2598 -0.3680
  267DECAN   C5 2655   9.295   0.756  12.537  0.5845  0.4361  0.1739
  267DECAN   C6 2656   9.225   0.668  12.432  0.5056 -0.1790  0.7301
  267DECAN   C7 2657   9.306   0.670  12.301 -0.2838  0.1258  0.2353
  267DECAN   C8 2658   9.235   0.589  12.191  0.2498 -0.0462  0.0125
  267DECAN   C9 2659   9.094   0.640  12.155  0.2890 -0.7034 -1.1252
  267DECAN  C10 2660   9.034   0.552  12.044 -0.7102 -1.0803 -0.3042
  268DECAN   C1 2661  10.092  10.712  11.824 -0.1719 -0.3205 -0.2023
  268DECAN   C2 2662  10.075  10.633  11.956  0.0372 -0.3325 -0.1823
  268DECAN   C3 2663  10.159  10.683  12.074 -0.4030 -0.3243  0.1298
  268DECAN   C4 2664  10.115  10.612  12.204 -0.2062  0.1848  0.4774
  268DECAN   C5 2665  10.207  10.638  12.325 -0.3728  0.0176  0.6403
  268DECAN   C6 2666  10.254  10.784  12.336  0.2376 -0.1454  0.2654
  268DECAN   C7 2667  10.352  10.809  12.452  0.3599 -0.1012  0.1512
  268DECAN   C8 2668  10.376  10.948  12.513  0.3862  0.1466 -0.4199
  268DECAN   C9 2669  10.442  10.955  12.651  0.4386  0.2651 -0.4507
  268DECAN  C10 2670  10.438  11.091  12.723 -0.1041  0.0444 -0.0553
  269DECAN   C1 2671   6.854   6.955   8.689  0.0498 -0.0110  0.0370
  269DECAN   C2 2672   6.785   7.066   8.770 -0.1601 -0.0474 -0.0891
  269DECAN   C3 2673   6.876   7.155   8.858 -0.4303  0.2776 -0.1359
  269DECAN   C4 2674   6.795   7.227   8.968  0.1536  0.3109  0.2766
  269DECAN   C5 2675   6.758   7.123   9.075  0.1789 -0.0530 -0.0628
  269DECAN   C6 2676   6.699   7.202   9.193  0.3067 -0.4222  0.2511
  269DECAN   C7 2677   6.640   7.120   9.310 -0.5512  0.1117  0.2044
  269DECAN   C8 2678   6.602   7.208   9.430 -0.3816  0.3470  0.0868
  269DECAN   C9 2679   6.591   7.152   9.573 -0.3018 -0.0554 -0.0663
  269DECAN  C10 2680   6.469   7.069   9.617  0.1312 -0.4807  0.3483
  270DECAN   C1 2681   2.850   2.033   8.259 -0.4310 -0.3509 -0.7192
  270DECAN   C2 2682   2.868   1.883   8.288  0.0017 -0.1981 -0.1979
  270DECAN   C3 2683   2.815   1.852   8.430 -0.2102 -0.1746 -0.2716
  270DECAN   C4 2684   2.838   1.704   8.466 -0.2408 -0.1394 -0.1095
  270DECAN   C5 2685   2.776   1.605   8.366  0.0399 -0.1239 -0.3013
  270DECAN   C6 2686   2.742   1.468   8.428 -0.3715 -0.0262 -0.3080
  270DECAN   C7 2687   2.758   1.350   8.332  0.1845 -0.1422 -0.0750
  270DECAN   C8 2688   2.677   1.351   8.201  0.3906  0.0833 -0.2017
  270DECAN   C9 2689   2.667   1.208   8.145  0.6579  0.0110 -0.0651
  270DECAN  C10 2690   2.642   1.181   7.996 -0.4252 -0.3394  0.1681
  271DECAN   C1 2691   9.403   0.732  13.511 -0.3075  0.2049 -1.0544
  271DECAN   C2 2692   9.377   0.602  13.432 -0.5028 -0.2685 -0.2128
  271DECAN   C3 2693   9.443   0.582  13.295 -0.2249 -0.7115 -0.0185
  271DECAN   C4 2694   9.365   0.479  13.211 -0.1211 -0.5707 -0.2899
  271DECAN   C5 2695   9.379   0.501  13.059 -0.0350 -0.4100 -0.2592
  271DECAN   C6 2696   9.281   0.418  12.973  0.1991 -0.7937 -0.1606
  271DECAN   C7 2697   9.276   0.265  12.991 -0.4116 -0.8370 -0.6630
  271DECAN   C8 2698   9.224   0.226  13.130  0.4286 -0.3738 -0.2075
  271DECAN   C9 2699   9.222   0.073  13.150  0.8456 -0.3899 -0.2926
  271DECAN  C10 2700   9.183   0.027  13.291  0.7387 -0.3707 -0.3161
  272DECAN   C1 2701   5.816  10.643   6.442  0.0519 -0.3793 -0.0888
  272DECAN   C2 2702   5.847  10.642   6.291  0.2728 -0.2885 -0.0440
  272DECAN   C3 2703   5.720  10.625   6.207  0.3492 -0.1935 -0.1796
  272DECAN   C4 2704   5.739  10.611   6.055  0.5580  0.5848 -0.2284
  272DECAN   C5 2705   5.842  10.501   6.024 -0.4916 -0.5267  0.1570
  272DECAN   C6 2706   5.859  10.474   5.873 -0.9242 -0.3431  0.0754
  272DECAN   C7 2707   5.958  10.360   5.843 -0.3001  0.2926 -0.3139
  272DECAN   C8 2708   5.983  10.339   5.692  0.0054 -1.0403 -0.0896
  272DECAN   C9 2709   6.063  10.452   5.626 -0.4219 -0.4126  0.4506
  272DECAN  C10 2710   6.097  10.403   5.484  0.3733  0.6008  0.2774
  273DECAN   C1 2711   3.316   8.750  10.420 -0.6783 -0.4523 -0.1224
  273DECAN   C2 2712   3.166   8.787  10.421 -0.5097  0.2345  0.4994
  273DECAN   C3 2713   3.056   8.681  10.402  0.0887 -0.3061  0.0080
  273DECAN   C4 2714   2.913   8.738  10.392  0.3757  0.4067 -0.1234
  273DECAN   C5 2715   2.882   8.817  10.264 -0.2696 -0.0546 -0.2589
  273DECAN   C6 2716   2.891   8.743  10.130  0.2316 -0.0483 -0.2306
  273DECAN   C7 2717   2.850   8.833  10.013  0.2314  0.1742 -0.0587
  273DECAN   C8 2718   2.858   8.781   9.868 -0.0812 -0.0855  0.0138
  273DECAN   C9 2719   2.839   8.877   9.749 -0.7695 -0.0589  0.1445
  273DECAN  C10 2720   2.973   8.923   9.688 -0.9270  0.0613 -0.1138
  274DECAN   C1 2721   0.994   5.789   8.013 -0.4047 -0.6488 -0.6850
  274DECAN   C2 2722   0.999   5.798   8.167 -0.2665 -0.4897 -0.6983
  274DECAN   C3 2723   1.143   5.789   8.222 -0.0683  0.1632 -1.0957
  274DECAN   C4 2724   1.229   5.890   8.145  0.2048 -0.0947 -1.1309
  274DECAN   C5 2725   1.378   5.879   8.186 -0.0839 -0.0086 -0.0212
  274DECAN   C6 2726   1.473   5.990   8.137  0.2696 -0.2329  0.1549
  274DECAN   C7 2727   1.467   6.029   7.988 -0.1183  0.2892  0.3061
  274DECAN   C8 2728   1.333   6.094   7.950 -0.1951 -0.1501 -0.1872
  274DECAN   C9 2729   1.287   6.101   7.803 -0.0347 -0.3622 -0.2463
  274DECAN  C10 2730   1.240   5.971   7.736 -0.0677 -0.2539 -0.4331
  275DECAN   C1 2731   2.812   5.693  11.664 -0.3471  0.1449 -0.5447
  275DECAN   C2 2732   2.695   5.605  11.710 -0.2321  0.2864  0.0221
  275DECAN   C3 2733   2.592   5.690  11.787 -0.1403  0.4843 -0.0729
  275DECAN   C4 2734   2.651   5.721  11.926 -0.0605 -0.5536  0.1378
  275DECAN   C5 2735   2.547   5.763  12.032  0.5511  0.5079  0.3245
  275DECAN   C6 2736   2.603   5.851  12.146  0.0301  1.0944  0.1326
  275DECAN   C7 2737   2.498   5.873  12.257 -0.4338  0.4262 -0.1639
  275DECAN   C8 2738   2.567   5.930  12.382  0.2644  0.0062 -0.3510
  275DECAN   C9 2739   2.635   5.819  12.464  0.5108  0.2378 -0.2406
  275DECAN  C10 2740   2.540   5.701  12.494  0.1336  0.5808 -0.0776
  276DECAN   C1 2741   7.081   3.502  14.596  0.0829  0.6573  0.0281
  276DECAN   C2 2742   6.984   3.483  14.714  0.0431 -0.3298 -0.1564
  276DECAN   C3 2743   6.970   3.330  14.731 -0.2681 -0.3279 -0.3792
  276DECAN   C4 2744   6.856   3.296  14.829 -0.3039  0.4155 -0.1540
  276DECAN   C5 2745   6.839   3.144  14.840 -0.3084  0.4690  0.5849
  276DECAN   C6 2746   6.734   3.068  14.923 -0.2106 -0.2915  0.0312
  276DECAN   C7 2747   6.590   3.123  14.908 -0.1364 -0.0050  0.3367
  276DECAN   C8 2748   6.494   3.018  14.967 -0.5801 -0.0342 -0.4194
  276DECAN   C9 2749   6.498   2.878  14.903 -0.6525 -0.1390 -0.1936
  276DECAN  C10 2750   6.383   2.793  14.962 -0.2899 -0.5796 -0.1168
  277DECAN   C1 2751   8.217   7.666  13.702 -0.4304 -0.0448  0.4718
  277DECAN   C2 2752   8.339   7.754  13.736 -0.0093 -0.1917 -0.5884
  277DECAN   C3 2753   8.306   7.897  13.782  0.2464 -0.1909 -0.4042
  277DECAN   C4 2754   8.419   8.002  13.774  0.3142 -0.2492 -0.2278
  277DECAN   C5 2755   8.536   7.963  13.866  0.5614  0.1560 -0.3699
  277DECAN   C6 2756   8.658   8.057  13.860  0.8275 -0.1586  0.1064
  277DECAN   C7 2757   8.726   8.073  13.723  0.0376  0.0764 -0.2641
  277DECAN   C8 2758   8.873   8.117  13.735  0.0766 -0.0763 -0.1741
  277DECAN   C9 2759   8.946   8.112  13.600 -0.0100  0.3522 -0.2374
  277DECAN  C10 2760   9.096   8.079  13.605 -0.0788  0.0956  0.1441
  278DECAN   C1 2761   5.773   7.156   7.349 -0.3512  0.3014 -0.1739
  278DECAN   C2 2762   5.665   7.059   7.297 -0.6625  0.3047  0.4623
  278DECAN   C3 2763   5.616   6.947   7.391 -0.2073 -0.2174  0.0829
  278DECAN   C4 2764   5.516   6.850   7.326 -0.0367  0.0453 -0.5807
  278DECAN   C5 2765   5.497   6.713   7.395  0.5402  0.2709  0.0480
  278DECAN   C6 2766   5.466   6.735   7.544 -0.5000 -0.1952 -0.0869
  278DECAN   C7 2767   5.471   6.607   7.629 -0.3574 -0.1710 -0.0576
  278DECAN   C8 2768   5.455   6.625   7.781  0.8706  0.3291  0.0244
  278DECAN   C9 2769   5.462   6.490   7.855 -0.1963  0.3602  0.2081
  278DECAN  C10 2770   5.389   6.495   7.990 -0.8019 -0.2895 -0.0848
  279DECAN   C1 2771   4.710   4.801  11.934 -0.2719  0.2571 -0.5826
  279DECAN   C2 2772   4.668   4.746  11.796 -0.6044 -0.4493 -0.2092
  279DECAN   C3 2773   4.705   4.850  11.688  0.2135 -0.1089  0.3845
  279DECAN   C4 2774   4.688   4.806  11.542 -0.2163  0.4565  0.2588
  279DECAN   C5 2775   4.701   4.918  11.437 -0.0070  0.2660  0.0786
  279DECAN   C6 2776   4.721   4.870  11.292  0.1236  0.1671  0.1294
  279DECAN   C7 2777   4.661   4.980  11.202 -0.4800 -0.0739  0.2348
  279DECAN   C8 2778   4.703   4.974  11.054 -0.1188 -0.1435  0.3397
  279DECAN   C9 2779   4.659   5.098  10.975  0.3025 -0.5262 -0.4985
  279DECAN  C10 2780   4.512   5.083  10.933 -0.1527  0.2454  0.7590
  280DECAN   C1 2781   6.973   5.914  15.107 -0.0626 -0.0712  0.5609
  280DECAN   C2 2782   6.884   5.888  14.984  0.1896  0.8416  0.1793
  280DECAN   C3 2783   6.982   5.883  14.866 -0.1694  0.6109 -0.1103
  280DECAN   C4 2784   6.912   5.851  14.733  0.8357 -0.2263 -0.4542
  280DECAN   C5 2785   6.996   5.825  14.607  0.3369 -0.0126 -0.8353
  280DECAN   C6 2786   6.934   5.768  14.477 -0.3093 -0.0545 -0.5124
  280DECAN   C7 2787   7.045   5.706  14.390 -0.0333 -0.1131 -0.1256
  280DECAN   C8 2788   7.000   5.681  14.244  0.1225  0.4201 -0.2703
  280DECAN   C9 2789   7.090   5.578  14.172 -0.5022 -0.3558  0.0455
  280DECAN  C10 2790   7.061   5.512  14.036 -0.4170 -0.4237  0.0602
  281DECAN   C1 2791  10.139   9.356   8.207 -0.1573  0.3639 -0.6687
  281DECAN   C2 2792  10.051   9.349   8.333  0.4387 -0.2182 -0.2797
  281DECAN   C3 2793  10.142   9.296   8.446 -0.1314  0.1481  0.3609
  281DECAN   C4 2794  10.273   9.367   8.483  0.2399 -0.1946 -0.2707
  281DECAN   C5 2795  10.344   9.313   8.609 -0.5857  0.2894  0.4101
  281DECAN   C6 2796  10.256   9.329   8.735 -0.2554 -0.2722  0.7164
  281DECAN   C7 2797  10.280   9.456   8.818 -0.6479  0.1478  0.1999
  281DECAN   C8 2798  10.228   9.587   8.756  0.3696  0.4204 -0.1000
  281DECAN   C9 2799  10.316   9.704   8.803  0.2620  0.4778 -0.0366
  281DECAN  C10 2800  10.286   9.845   8.749  0.1850  0.2723 -0.5364
  282DECAN   C1 2801   1.312  11.150   9.093  0.2626  0.5772  0.0179
  282DECAN   C2 2802   1.258   0.042   9.140 -0.2685  0.2745  0.2819
  282DECAN   C3 2803   1.185   0.117   9.027 -0.1582 -0.1287 -0.0570
  282DECAN   C4 2804   1.279   0.174   8.920 -0.0119  0.0132  0.1481
  282DECAN   C5 2805   1.217   0.216   8.785  0.0858  0.2118  0.1651
  282DECAN   C6 2806   1.162   0.095   8.708  0.2170  0.2680 -0.0175
  282DECAN   C7 2807   1.066   0.121   8.591 -0.2163  0.1582  0.3131
  282DECAN   C8 2808   0.924   0.065   8.617 -0.1672 -0.1182 -0.0092
  282DECAN   C9 2809   0.836   0.121   8.730 -0.7511 -0.1358 -0.4518
  282DECAN  C10 2810   0.716   0.030   8.762 -0.9653  0.3696  0.1845
  283DECAN   C1 2811   7.680   4.329   9.650 -0.3083  0.1865 -0.5767
  283DECAN   C2 2812   7.632   4.446   9.738  0.4301 -0.0888  0.1983
  283DECAN   C3 2813   7.517   4.411   9.834  0.2971 -0.1205  0.0280
  283DECAN   C4 2814   7.492   4.529   9.930 -0.1806 -0.1278 -0.0866
  283DECAN   C5 2815   7.348   4.527   9.984  0.0111  0.4446  0.4596
  283DECAN   C6 2816   7.303   4.656  10.055 -0.1579  0.3973  0.4380
  283DECAN   C7 2817   7.155   4.651  10.096 -0.3180 -0.2042 -0.1893
  283DECAN   C8 2818   7.104   4.781  10.160  0.1725  0.0337 -0.2793
  283DECAN   C9 2819   7.133   4.903  10.071 -0.2617  0.1552 -0.2563
  283DECAN  C10 2820   7.126   5.048  10.124 -0.3990  0.1659 -0.3033
  284DECAN   C1 2821   9.055   9.134   7.981  0.7431  0.1408  0.6173
  284DECAN   C2 2822   8.983   9.257   8.040 -0.0278  0.0141 -0.0434
  284DECAN   C3 2823   8.847   9.269   7.968 -0.0109 -0.6158 -0.1871
  284DECAN   C4 2824   8.863   9.295   7.817  0.2702 -0.3522 -0.1119
  284DECAN   C5 2825   8.930   9.429   7.781 -0.0789 -0.2631 -0.4362
  284DECAN   C6 2826   8.963   9.448   7.632 -0.1232  0.1073 -0.3985
  284DECAN   C7 2827   9.032   9.583   7.604 -0.5404  0.3616 -0.2167
  284DECAN   C8 2828   9.174   9.602   7.661 -0.4670  0.1491 -0.3282
  284DECAN   C9 2829   9.226   9.738   7.610 -0.3636  0.1672 -0.1780
  284DECAN  C10 2830   9.358   9.794   7.665 -0.4599  0.0010  0.2187
  285DECAN   C1 2831   9.820   9.037   7.672 -0.0602  0.2640  0.3258
  285DECAN   C2 2832   9.925   9.138   7.623  0.8179 -1.0911 -0.6444
  285DECAN   C3 2833  10.031   9.152   7.734 -0.5611  0.1541  0.5635
  285DECAN   C4 2834  10.088   9.024   7.797 -0.1122  0.3180  0.4958
  285DECAN   C5 2835  10.211   9.032   7.890  0.1802  0.4575  0.0951
  285DECAN   C6 2836  10.250   8.895   7.946 -0.2001  0.2469 -0.1477
  285DECAN   C7 2837  10.364   8.903   8.050 -0.2214 -0.0857 -0.0967
  285DECAN   C8 2838  10.407   8.766   8.104  0.1990 -0.1459 -0.5749
  285DECAN   C9 2839  10.531   8.781   8.194 -0.2968 -0.0106  0.0896
  285DECAN  C10 2840  10.505   8.865   8.320  0.5855  0.0362  0.2503
  286DECAN   C1 2841  10.966   5.433   7.449  0.7820 -0.1733 -0.1184
  286DECAN   C2 2842  10.915   5.335   7.342  0.1169  0.0491 -0.0106
  286DECAN   C3 2843  10.878   5.195   7.394  0.0344  0.0136 -0.1659
  286DECAN   C4 2844  10.906   5.083   7.292 -0.1409 -0.0966 -0.0938
  286DECAN   C5 2845  10.837   4.950   7.329 -0.2154 -0.0258  0.0199
  286DECAN   C6 2846  10.876   4.831   7.240  0.3762 -0.1292  0.4064
  286DECAN   C7 2847  10.778   4.713   7.254  0.3475 -0.1151  0.3300
  286DECAN   C8 2848  10.816   4.599   7.159  0.2579  0.0838  0.0555
  286DECAN   C9 2849  10.717   4.482   7.172 -0.3046  0.5791  0.2723
  286DECAN  C10 2850  10.760   4.367   7.079  0.6515  0.7042  0.5454
  287DECAN   C1 2851   6.032   1.800   9.642 -0.7517  0.6355 -0.5675
  287DECAN   C2 2852   6.065   1.949   9.665  0.2515  0.3943 -0.3843
  287DECAN   C3 2853   5.948   2.035   9.612 -0.5187 -0.2813  0.1878
  287DECAN   C4 2854   5.908   2.153   9.702 -0.1381  0.1998 -0.2663
  287DECAN   C5 2855   5.799   2.239   9.637 -0.3470  0.2161  0.1025
  287DECAN   C6 2856   5.745   2.344   9.736  0.9482  0.4758  0.5494
  287DECAN   C7 2857   5.702   2.295   9.875 -0.0878  0.0363  0.0824
  287DECAN   C8 2858   5.670   2.410   9.972 -0.3417  0.5030 -0.5477
  287DECAN   C9 2859   5.668   2.360  10.118 -0.1824  0.7698 -0.4536
  287DECAN  C10 2860   5.629   2.470  10.218  0.4020  0.5038  0.0678
  288DECAN   C1 2861   6.238   0.224  13.104 -1.1407 -0.4129  0.1903
  288DECAN   C2 2862   6.302   0.236  13.243  0.5670 -0.5993 -0.5581
  288DECAN   C3 2863   6.424   0.329  13.256  0.2005 -0.1252 -0.5121
  288DECAN   C4 2864   6.367   0.472  13.256 -0.0753 -0.2334 -0.4278
  288DECAN   C5 2865   6.467   0.589  13.250 -0.2018 -0.0833  0.2817
  288DECAN   C6 2866   6.538   0.568  13.114 -0.7922 -0.0123 -0.0392
  288DECAN   C7 2867   6.648   0.670  13.080 -0.7055 -0.0699  0.0681
  288DECAN   C8 2868   6.570   0.802  13.064 -0.2670  0.2176  0.2868
  288DECAN   C9 2869   6.662   0.920  13.023 -0.4325  0.2716  0.0671
  288DECAN  C10 2870   6.609   1.060  13.058  0.0498  0.4004  0.2778
  289DECAN   C1 2871   6.434  10.461  13.221 -0.0280 -0.3807  0.5405
  289DECAN   C2 2872   6.570  10.494  13.284 -0.1416  0.7075  0.2247
  289DECAN   C3 2873   6.644  10.621  13.236  0.2743  0.1431 -0.6504
  289DECAN   C4 2874   6.798  10.623  13.248  0.2489 -0.1201 -0.2287
  289DECAN   C5 2875   6.850  10.603  13.391 -0.4453 -0.1899  0.0179
  289DECAN   C6 2876   6.789  10.693  13.500  0.3234  0.2940  0.0555
  289DECAN   C7 2877   6.812  10.660  13.649  0.1762  0.0745  0.0298
  289DECAN   C8 2878   6.761  10.524  13.699  0.1853  0.1018  0.1130
  289DECAN   C9 2879   6.776  10.490  13.849  0.3131  0.2853  0.1421
  289DECAN  C10 2880   6.678  10.576  13.932 -0.4201 -0.0242 -0.3923
  290DECAN   C1 2881   2.755   8.877   8.325 -0.1680  0.0435 -0.1759
  290DECAN   C2 2882   2.618   8.919   8.380 -0.0111 -0.4228  0.5791
  290DECAN   C3 2883   2.602   8.897   8.532  0.4710 -0.3499  0.6429
  290DECAN   C4 2884   2.459   8.915   8.586  0.2674 -0.5919  0.1963
  290DECAN   C5 2885   2.355   8.805   8.555  0.0664 -0.3492  0.0033
  290DECAN   C6 2886   2.220   8.827   8.625  0.3754  0.1619  0.4515
  290DECAN   C7 2887   2.127   8.940   8.578  0.2011 -0.0940  0.1795
  290DECAN   C8 2888   1.998   8.954   8.661 -0.0443  0.6608 -0.3199
  290DECAN   C9 2889   2.018   8.943   8.814  0.0789 -0.2278 -0.3968
  290DECAN  C10 2890   1.902   8.996   8.899 -0.0557 -0.4445 -0.4458
  291DECAN   C1 2891   2.060   8.329   9.562 -0.6844  0.8282 -0.6368
  291DECAN   C2 2892   1.927   8.269   9.611 -0.2637  0.1596 -0.3075
  291DECAN   C3 2893   1.884   8.327   9.748  0.4424 -0.4308  0.1697
  291DECAN   C4 2894   1.762   8.252   9.803  0.1758 -0.0241  0.1341
  291DECAN   C5 2895   1.708   8.299   9.939 -0.2677 -0.1191 -0.0068
  291DECAN   C6 2896   1.792   8.268  10.064  0.1888  0.5135 -0.1501
  291DECAN   C7 2897   1.753   8.346  10.191 -0.9688 -0.0395 -0.1504
  291DECAN   C8 2898   1.808   8.490  10.175 -0.0533 -0.3620  0.0344
  291DECAN   C9 2899   1.961   8.497  10.166 -0.0895  0.0754 -0.2264
  291DECAN  C10 2900   2.017   8.609  10.256 -0.4963  0.0021  0.1169
  292DECAN   C1 2901   7.817   8.498   6.588  0.3423  0.1149  0.6733
  292DECAN   C2 2902   7.942   8.415   6.555  0.0427  0.2615 -0.9225
  292DECAN   C3 2903   7.915   8.282   6.481 -0.3392 -0.2325  0.0805
  292DECAN   C4 2904   8.048   8.206   6.489 -0.3142 -0.1564  0.3983
  292DECAN   C5 2905   8.039   8.068   6.421 -0.3886 -0.1437  0.3829
  292DECAN   C6 2906   8.158   7.973   6.449 -0.1832  0.2260  0.7785
  292DECAN   C7 2907   8.133   7.845   6.367  0.3635  0.4223  0.2996
  292DECAN   C8 2908   8.123   7.852   6.214 -0.3137 -0.1264  0.3160
  292DECAN   C9 2909   8.144   7.715   6.147  0.1385 -0.0854  0.3769
  292DECAN  C10 2910   8.186   7.715   5.999 -0.7362 -0.4756  0.1243
  293DECAN   C1 2911  10.117   6.957  11.232  0.2182 -0.5369  0.2738
  293DECAN   C2 2912  10.042   6.923  11.102 -0.0511 -0.2126  0.3416
  293DECAN   C3 2913   9.894   6.964  11.111  0.0270  0.1476 -0.0180
  293DECAN   C4 2914   9.799   6.921  10.998 -0.0749  0.0649  0.0991
  293DECAN   C5 2915   9.789   6.767  10.997  0.1311  0.0479  0.4615
  293DECAN   C6 2916   9.924   6.696  11.017  0.3878  0.2432 -0.5026
  293DECAN   C7 2917   9.917   6.545  11.048 -0.7774  0.3451 -0.2233
  293DECAN   C8 2918   9.859   6.451  10.940 -0.6472 -0.4377  0.3829
  293DECAN   C9 2919   9.822   6.306  10.976  0.0400 -0.7761 -0.2496
  293DECAN  C10 2920   9.931   6.222  11.045  0.3722  0.1854  0.4084
  294DECAN   C1 2921   4.011   0.991  11.697  0.1708  0.7024  0.6086
  294DECAN   C2 2922   3.972   0.843  11.712  0.1821  0.5621 -0.6813
  294DECAN   C3 2923   3.823   0.804  11.711  0.3278 -0.0718  0.5665
  294DECAN   C4 2924   3.718   0.887  11.788  0.2897  0.2294  0.1965
  294DECAN   C5 2925   3.712   1.033  11.740  0.2674  0.2497  0.2614
  294DECAN   C6 2926   3.582   1.108  11.776 -0.3523 -0.5248 -0.3203
  294DECAN   C7 2927   3.560   1.226  11.680  0.0717 -0.0530  0.1559
  294DECAN   C8 2928   3.673   1.330  11.681  0.7998 -0.8399  0.3198
  294DECAN   C9 2929   3.702   1.403  11.549 -0.1414 -0.0757  0.5274
  294DECAN  C10 2930   3.684   1.299  11.437 -0.3919  0.2441  0.2675
  295DECAN   C1 2931   2.860   4.389   9.747  0.2796 -0.4809 -0.1971
  295DECAN   C2 2932   2.813   4.466   9.623  0.7381  0.1622  0.0200
  295DECAN   C3 2933   2.842   4.615   9.596  0.1063  0.2946  0.0528
  295DECAN   C4 2934   2.762   4.691   9.488  0.3597 -0.2029 -0.4877
  295DECAN   C5 2935   2.766   4.845   9.492 -0.1822 -0.1806 -0.7534
  295DECAN   C6 2936   2.626   4.904   9.517 -0.0543 -0.2101  0.0782
  295DECAN   C7 2937   2.643   5.056   9.512  0.1349 -0.2318  0.0774
  295DECAN   C8 2938   2.687   5.114   9.376 -0.1012 -0.5473 -0.1325
  295DECAN   C9 2939   2.804   5.031   9.320  0.7003  0.3547  0.1948
  295DECAN  C10 2940   2.925   5.113   9.269  0.8699  0.1411  0.2529
  296DECAN   C1 2941   8.371   9.604   9.140  0.2584 -0.3853  0.2787
  296DECAN   C2 2942   8.384   9.748   9.193  0.3435  0.0151 -0.8163
  296DECAN   C3 2943   8.457   9.781   9.325 -0.5441 -0.0707 -0.2961
  296DECAN   C4 2944   8.471   9.933   9.344 -0.0222 -0.0315 -0.9209
  296DECAN   C5 2945   8.343  10.010   9.383  0.2120 -0.0426 -0.1075
  296DECAN   C6 2946   8.333  10.162   9.364  0.0619 -0.0707 -0.2502
  296DECAN   C7 2947   8.349  10.197   9.215 -0.1160  0.8328 -0.0610
  296DECAN   C8 2948   8.479  10.277   9.195  0.1623  0.4237  0.0951
  296DECAN   C9 2949   8.503  10.336   9.055 -0.2573 -0.4581 -0.3555
  296DECAN  C10 2950   8.626  10.425   9.029 -0.0601 -0.4909  0.4295
  297DECAN   C1 2951   2.422   8.576  14.969 -0.4170 -0.2625 -0.0331
  297DECAN   C2 2952   2.380   8.723  14.959  0.0672 -0.0930  0.3716
  297DECAN   C3 2953   2.463   8.820  15.045  0.2581 -0.0379  0.1293
  297DECAN   C4 2954   2.454   8.965  14.995  0.4323 -0.1545 -0.2419
  297DECAN   C5 2955   2.510   9.001  14.856 -0.0770  0.2171 -0.3560
  297DECAN   C6 2956   2.484   9.149  14.822 -0.6503 -0.0013 -0.8946
  297DECAN   C7 2957   2.555   9.193  14.692  0.0606  0.6306 -0.3080
  297DECAN   C8 2958   2.539   9.087  14.581  0.0736  0.0855  0.2026
  297DECAN   C9 2959   2.577   8.946  14.628  0.1994  0.0768  0.0750
  297DECAN  C10 2960   2.561   8.824  14.535  0.1755  0.0378  0.1298
  298DECAN   C1 2961   6.330   7.643  11.994  0.5160  0.0047  0.2795
  298DECAN   C2 2962   6.459   7.606  11.918  0.1880 -0.1374 -0.2134
  298DECAN   C3 2963   6.449   7.465  11.857 -0.5967 -0.2891  0.2495
  298DECAN   C4 2964   6.581   7.385  11.850  0.0485  0.7881 -0.1650
  298DECAN   C5 2965   6.573   7.245  11.787 -0.0698  0.7023  0.0379
  298DECAN   C6 2966   6.707   7.168  11.786 -0.1214  0.6143 -0.3197
  298DECAN   C7 2967   6.818   7.235  11.704 -0.2155  0.6991 -0.3785
  298DECAN   C8 2968   6.965   7.189  11.704 -0.2585  0.5646 -0.3635
  298DECAN   C9 2969   7.061   7.262  11.608  0.2986  0.0076 -0.2385
  298DECAN  C10 2970   7.091   7.409  11.641 -0.6978  0.1832 -0.0575
  299DECAN   C1 2971   3.021   8.207   8.391 -0.1481  0.5292 -0.2483
  299DECAN   C2 2972   2.892   8.259   8.325 -0.3677 -0.2739 -0.4545
  299DECAN   C3 2973   2.880   8.411   8.344  0.2617 -0.3093  0.2596
  299DECAN   C4 2974   2.885   8.444   8.494  0.2550 -0.3282  0.2635
  299DECAN   C5 2975   2.794   8.350   8.576 -0.1382 -0.0538  0.1457
  299DECAN   C6 2976   2.829   8.322   8.724  0.5281 -0.7521 -0.1346
  299DECAN   C7 2977   2.719   8.252   8.805 -0.0828  0.3094 -0.0293
  299DECAN   C8 2978   2.772   8.217   8.945  0.0388 -0.1804 -0.1937
  299DECAN   C9 2979   2.661   8.154   9.031  0.2481  0.0648  0.2619
  299DECAN  C10 2980   2.697   8.073   9.157  0.0741 -0.2967  0.0821
  300DECAN   C1 2981   1.528   3.551  14.416  0.2991  0.1430  0.0644
  300DECAN   C2 2982   1.653   3.469  14.454  0.3053  0.1376  0.0323
  300DECAN   C3 2983   1.781   3.554  14.464 -0.0047  0.6252 -0.0941
  300DECAN   C4 2984   1.906   3.464  14.469 -0.1932  0.3648  0.0170
  300DECAN   C5 2985   2.038   3.540  14.444  0.2600 -0.3179  0.3065
  300DECAN   C6 2986   2.072   3.658  14.537  0.5478  0.0658 -0.2773
  300DECAN   C7 2987   2.110   3.607  14.677 -0.1891 -0.1383 -0.1487
  300DECAN   C8 2988   2.126   3.720  14.782 -0.0881 -0.7061  0.4546
  300DECAN   C9 2989   2.010   3.821  14.772  0.5765 -0.0047 -0.3464
  300DECAN  C10 2990   1.997   3.902  14.642  0.2109  0.2370 -0.1600
  301DECAN   C1 2991   2.366   0.707  11.242 -0.2081 -0.1737  0.8529
  301DECAN   C2 2992   2.329   0.557  11.247  0.5220 -0.3687  0.5682
  301DECAN   C3 2993   2.176   0.550  11.233  0.5932 -0.2113 -0.3360
  301DECAN   C4 2994   2.100   0.427  11.286  0.1421  0.3518  0.3512
  301DECAN   C5 2995   1.947   0.428  11.266  0.1212 -0.6657  0.3870
  301DECAN   C6 2996   1.881   0.551  11.331  0.5297 -0.0773 -0.3046
  301DECAN   C7 2997   1.728   0.554  11.316  0.5620  0.1367 -0.6011
  301DECAN   C8 2998   1.671   0.692  11.353  0.1947 -0.1017 -0.2677
  301DECAN   C9 2999   1.719   0.809  11.264 -0.5362  0.1178 -0.3754
  301DECAN  C10 3000   1.647   0.941  11.298  0.4525  0.5696 -0.0099
  302DECAN   C1 3001   6.644   8.095   9.529  0.3301 -0.7950  0.0122
  302DECAN   C2 3002   6.753   8.149   9.624 -0.2903 -0.0755  0.3250
  302DECAN   C3 3003   6.883   8.068   9.643 -0.3445 -0.1410  0.4141
  302DECAN   C4 3004   6.977   8.132   9.747  0.0964  0.2478 -0.2178
  302DECAN   C5 3005   7.120   8.076   9.760  0.1778  0.5373  0.1479
  302DECAN   C6 3006   7.219   8.170   9.833  0.4176 -0.0639  0.6125
  302DECAN   C7 3007   7.366   8.161   9.788  0.2723 -0.2088  0.1551
  302DECAN   C8 3008   7.450   8.265   9.864 -0.1918  0.5374 -0.3348
  302DECAN   C9 3009   7.600   8.258   9.833 -0.1568 -0.5887  0.0525
  302DECAN  C10 3010   7.685   8.355   9.917 -0.5015 -0.1288 -0.1331
  303DECAN   C1 3011   9.159   0.697   5.848  0.4164 -0.4968  0.2212
  303DECAN   C2 3012   9.161   0.640   5.705 -0.3141 -0.1018  0.0492
  303DECAN   C3 3013   9.186   0.489   5.722 -0.3482 -0.1120  0.0088
  303DECAN   C4 3014   9.197   0.401   5.596  0.0470  0.2152 -0.1870
  303DECAN   C5 3015   9.224   0.251   5.621  0.4204  0.3738  0.3702
  303DECAN   C6 3016   9.274   0.170   5.500  0.4275  0.4926  0.2927
  303DECAN   C7 3017   9.364   0.046   5.520 -0.0519  0.0184 -0.4571
  303DECAN   C8 3018   9.389  11.187   5.408 -0.6668 -0.3046 -0.3033
  303DECAN   C9 3019   9.476  11.064   5.442 -0.1910  0.0862 -0.0904
  303DECAN  C10 3020   9.489  10.980   5.314  0.3570  0.1047 -0.0501
  304DECAN   C1 3021   7.204   4.896  10.951 -0.3887  0.6715 -0.2670
  304DECAN   C2 3022   7.259   4.753  10.942 -0.2863  0.7177 -0.3717
  304DECAN   C3 3023   7.284   4.720  10.793  0.4199 -0.3697 -0.0254
  304DECAN   C4 3024   7.376   4.599  10.767  0.4071 -0.3717 -0.0592
  304DECAN   C5 3025   7.301   4.497  10.679  0.3654 -0.0632 -0.3839
  304DECAN   C6 3026   7.175   4.425  10.729  0.4297  0.1782  0.1433
  304DECAN   C7 3027   7.135   4.313  10.630  0.4645 -0.0964  0.4376
  304DECAN   C8 3028   7.236   4.198  10.649  0.3841 -0.2673 -0.1509
  304DECAN   C9 3029   7.382   4.239  10.624  0.2599  0.1271 -0.2324
  304DECAN  C10 3030   7.479   4.124  10.653 -0.1890 -0.2260 -0.1254
  305DECAN   C1 3031   7.903   8.728  13.789  0.0568 -0.4320 -0.0874
  305DECAN   C2 3032   7.858   8.582  13.766 -0.0342 -0.4813  0.3875
  305DECAN   C3 3033   7.908   8.474  13.864 -0.4484 -0.7652  0.2889
  305DECAN   C4 3034   7.842   8.336  13.878 -0.7420 -0.6561 -0.0090
  305DECAN   C5 3035   7.930   8.236  13.956  0.0202 -0.1533 -0.2132
  305DECAN   C6 3036   7.941   8.243  14.109  0.6117  0.1353 -0.2653
  305DECAN   C7 3037   8.053   8.176  14.191  0.0538 -0.5322 -0.0341
  305DECAN   C8 3038   8.040   8.192  14.344  0.1706 -0.0033 -0.0774
  305DECAN   C9 3039   8.154   8.116  14.415 -0.4080 -0.6725  0.1433
  305DECAN  C10 3040   8.192   8.180  14.550  0.6274 -0.2886 -0.3227
  306DECAN   C1 3041   9.263  10.784   5.941 -0.1056  0.1755 -0.9316
  306DECAN   C2 3042   9.196  10.646   5.930 -0.5458  0.3159 -0.1171
  306DECAN   C3 3043   9.044  10.643   5.904 -0.5003 -0.6327 -0.3323
  306DECAN   C4 3044   8.999  10.674   5.760  0.0798 -0.0194 -0.3851
  306DECAN   C5 3045   8.846  10.669   5.746  0.0796  0.4831 -0.6089
  306DECAN   C6 3046   8.802  10.684   5.599 -0.0894 -0.1452 -0.6244
  306DECAN   C7 3047   8.652  10.709   5.579 -0.0780  0.1916 -0.2933
  306DECAN   C8 3048   8.608  10.650   5.444 -0.2567  0.0109 -0.1574
  306DECAN   C9 3049   8.458  10.624   5.423 -0.3683  0.6034 -0.1085
  306DECAN  C10 3050   8.421  10.553   5.291  0.2203  0.0791  0.0025
  307DECAN   C1 3051   4.840   5.432  11.768 -0.5879 -0.0378  0.1019
  307DECAN   C2 3052   4.832   5.279  11.761 -0.3166 -0.0590  0.2155
  307DECAN   C3 3053   4.813   5.208  11.897  0.3474 -0.4181  0.1230
  307DECAN   C4 3054   4.668   5.225  11.947  0.2274  0.2454 -0.4228
  307DECAN   C5 3055   4.561   5.163  11.856  0.2870  0.2823 -0.5195
  307DECAN   C6 3056   4.415   5.153  11.905  0.4040  0.1665 -0.1899
  307DECAN   C7 3057   4.311   5.078  11.820  0.0800  0.2777  0.1067
  307DECAN   C8 3058   4.169   5.110  11.873  0.2108  0.5167  0.3169
  307DECAN   C9 3059   4.056   5.051  11.787  0.0223  1.1008  0.1560
  307DECAN  C10 3060   4.010   5.120  11.658 -0.8458 -0.2404 -0.2767
  308DECAN   C1 3061  10.644  10.870   7.331  0.5931 -0.0764  0.0136
  308DECAN   C2 3062  10.516  10.803   7.277  0.0896  0.2197  0.8281
  308DECAN   C3 3063  10.390  10.885   7.312 -0.2283  0.0281  0.1531
  308DECAN   C4 3064  10.400  10.964   7.444 -0.1723  0.4359 -0.0931
  308DECAN   C5 3065  10.265  11.015   7.498 -0.2743 -0.1040  0.1738
  308DECAN   C6 3066  10.201  11.117   7.402  0.4958  0.2400  0.0234
  308DECAN   C7 3067  10.073  11.183   7.457  0.4490 -0.0375  0.2495
  308DECAN   C8 3068  10.020   0.052   7.366  0.0362 -0.3934  0.0448
  308DECAN   C9 3069   9.892   0.128   7.408  0.3069  0.0957 -0.0152
  308DECAN  C10 3070   9.847   0.234   7.306 -0.1528 -0.0139  0.0748
  309DECAN   C1 3071   9.109  11.058  14.828 -0.9351 -0.2053  0.9754
  309DECAN   C2 3072   9.193  10.936  14.871 -0.8071 -0.3769  0.2498
  309DECAN   C3 3073   9.327  10.948  14.947 -0.3452 -0.3659 -0.5545
  309DECAN   C4 3074   9.413  10.821  14.951  0.0889 -0.0514  0.3835
  309DECAN   C5 3075   9.559  10.852  14.990 -0.0289  0.7753  0.1978
  309DECAN   C6 3076   9.643  10.935  14.891  0.1718 -0.1650 -0.4297
  309DECAN   C7 3077   9.613  11.086  14.884  0.2123 -0.1203  0.3230
  309DECAN   C8 3078   9.723  11.172  14.818  0.4079 -0.2791  0.4360
  309DECAN   C9 3079   9.688   0.078  14.816 -0.4972 -0.4880 -0.3289
  309DECAN  C10 3080   9.802   0.168  14.765 -0.1392 -0.4760  0.4732
  310DECAN   C1 3081   7.954   5.132   5.874  0.6261  0.0478 -0.1320
  310DECAN   C2 3082   7.808   5.176   5.896  0.4938 -0.2888 -0.3335
  310DECAN   C3 3083   7.718   5.213   5.777  0.1444  0.3838  0.1350
  310DECAN   C4 3084   7.573   5.235   5.826  0.0577  0.6338 -0.2279
  310DECAN   C5 3085   7.475   5.266   5.711 -0.2369  0.5159 -0.0090
  310DECAN   C6 3086   7.331   5.259   5.765 -0.1276  0.4011  0.2729
  310DECAN   C7 3087   7.219   5.283   5.662  0.1260 -0.0272 -0.1052
  310DECAN   C8 3088   7.079   5.263   5.722  0.1784 -0.1143 -0.0115
  310DECAN   C9 3089   6.964   5.310   5.629 -0.1247 -0.3089  0.2619
  310DECAN  C10 3090   6.824   5.299   5.691 -0.3032  0.1172 -0.0648
  311DECAN   C1 3091   4.423   7.293  13.218  0.2057 -0.6155  0.1417
  311DECAN   C2 3092   4.370   7.438  13.224  0.1577 -0.6472  0.5022
  311DECAN   C3 3093   4.485   7.540  13.219  0.0810 -0.5892 -0.1463
  311DECAN   C4 3094   4.567   7.535  13.088  0.0738  0.1602 -0.1854
  311DECAN   C5 3095   4.666   7.650  13.067 -0.1998  0.3788 -0.2873
  311DECAN   C6 3096   4.789   7.622  13.156  0.0018 -0.1842 -0.7412
  311DECAN   C7 3097   4.870   7.497  13.119  0.1626 -0.1345 -0.5577
  311DECAN   C8 3098   4.997   7.492  13.206 -0.1376 -0.3055 -0.1243
  311DECAN   C9 3099   5.099   7.391  13.149  0.6140  0.7668 -0.7301
  311DECAN  C10 3100   5.226   7.378  13.235 -0.2188 -0.0192  0.4156
  312DECAN   C1 3101   9.016   1.482   5.615 -0.1349  0.1460 -0.7515
  312DECAN   C2 3102   9.106   1.596   5.566 -0.3278  0.5764 -0.1277
  312DECAN   C3 3103   9.228   1.632   5.653 -0.1606  0.0343 -0.1345
  312DECAN   C4 3104   9.288   1.772   5.630  0.3182 -0.1013  0.2640
  312DECAN   C5 3105   9.189   1.889   5.643 -0.0715 -0.4478  0.4406
  312DECAN   C6 3106   9.245   2.021   5.587 -0.1789 -0.4219  0.3920
  312DECAN   C7 3107   9.231   2.134   5.690 -0.1120 -0.1156  0.0670
  312DECAN   C8 3108   9.301   2.115   5.826  0.7399  0.2455 -0.3188
  312DECAN   C9 3109   9.311   2.239   5.917 -0.6181  0.4706 -0.4553
  312DECAN  C10 3110   9.190   2.252   6.011 -0.3503  0.3276 -0.0865
  313DECAN   C1 3111   6.720   3.016  12.771 -0.1754  0.3567  0.5730
  313DECAN   C2 3112   6.629   2.923  12.853 -0.1352  0.1189  0.3507
  313DECAN   C3 3113   6.485   2.976  12.846 -0.0410  0.4218  0.6821
  313DECAN   C4 3114   6.472   3.117  12.906  0.2127  0.6481  0.2173
  313DECAN   C5 3115   6.526   3.111  13.050  0.4947 -0.0638  0.0860
  313DECAN   C6 3116   6.428   3.028  13.136  0.0245 -0.3113 -0.6833
  313DECAN   C7 3117   6.466   3.023  13.285 -0.6887  0.1152 -0.4807
  313DECAN   C8 3118   6.477   3.159  13.355 -0.3244 -0.3120  0.3025
  313DECAN   C9 3119   6.616   3.180  13.419 -0.0821 -0.0958 -0.2908
  313DECAN  C10 3120   6.611   3.289  13.527 -0.4198 -0.7499  0.3574
  314DECAN   C1 3121   3.361   0.994   9.243  0.0998  0.5262 -0.1555
  314DECAN   C2 3122   3.352   0.958   9.094  0.4380 -0.0834 -0.0302
  314DECAN   C3 3123   3.487   0.918   9.030  0.3337 -0.1683 -0.1978
  314DECAN   C4 3124   3.467   0.858   8.890  0.0967  0.0317 -0.2503
  314DECAN   C5 3125   3.600   0.827   8.819  0.0213  0.3333 -0.5264
  314DECAN   C6 3126   3.579   0.751   8.687 -0.1959 -0.0720 -0.2617
  314DECAN   C7 3127   3.700   0.736   8.592  0.2070 -0.0884  0.2470
  314DECAN   C8 3128   3.685   0.629   8.482  0.0978  0.3488 -0.1671
  314DECAN   C9 3129   3.673   0.486   8.538  0.2049  0.3751 -0.0783
  314DECAN  C10 3130   3.777   0.447   8.645  0.3210 -0.8232 -0.6089
  315DECAN   C1 3131   2.565   1.584  10.556 -0.1543 -0.3151 -0.7051
  315DECAN   C2 3132   2.478   1.477  10.622  0.4055 -0.6226 -0.4543
  315DECAN   C3 3133   2.561   1.348  10.616  0.6421 -0.4679 -0.4934
  315DECAN   C4 3134   2.524   1.234  10.713  0.5568  0.2816  0.3668
  315DECAN   C5 3135   2.608   1.108  10.686  0.2058  0.2221 -0.4804
  315DECAN   C6 3136   2.547   0.979  10.742 -0.3215  0.7158  0.0850
  315DECAN   C7 3137   2.406   0.953  10.686 -0.1010  0.3387 -0.2942
  315DECAN   C8 3138   2.404   0.984  10.535  0.3957 -0.0040 -0.3734
  315DECAN   C9 3139   2.262   1.004  10.479  0.2421 -0.2917 -0.0916
  315DECAN  C10 3140   2.239   1.046  10.332 -0.1545  0.0597  0.0686
  316DECAN   C1 3141   1.012   4.020   9.102 -0.2866  0.3698  0.0612
  316DECAN   C2 3142   1.108   3.957   9.205 -0.3233  0.1652 -0.0266
  316DECAN   C3 3143   1.160   4.061   9.307 -0.3800  0.0863  0.0818
  316DECAN   C4 3144   1.265   4.013   9.408 -0.2376  0.6852  0.2251
  316DECAN   C5 3145   1.211   3.889   9.481 -0.2259  0.6427  0.1614
  316DECAN   C6 3146   1.067   3.901   9.534 -0.1806  0.4127  0.3392
  316DECAN   C7 3147   1.028   3.781   9.622 -0.1830  0.4103  0.3355
  316DECAN   C8 3148   1.120   3.759   9.744  0.9490 -0.2303 -0.6103
  316DECAN   C9 3149   1.157   3.889   9.818 -0.3452 -0.1561 -0.0603
  316DECAN  C10 3150   1.214   3.860   9.958  0.3027 -0.4671 -0.3845
  317DECAN   C1 3151  10.738   8.258  13.567 -0.3774  0.0517  0.0467
  317DECAN   C2 3152  10.774   8.118  13.515  0.1624  0.1587  0.1184
  317DECAN   C3 3153  10.784   8.090  13.364  0.2904  0.0102  0.1535
  317DECAN   C4 3154  10.881   8.185  13.290  0.3756 -0.0685  0.1638
  317DECAN   C5 3155  10.905   8.163  13.140  0.9881 -0.0862  0.2629
  317DECAN   C6 3156  10.955   8.282  13.057 -0.0702  0.5023  0.4505
  317DECAN   C7 3157  10.855   8.397  13.032 -0.1991  0.3261  0.1606
  317DECAN   C8 3158  10.913   8.508  12.943  0.2750 -0.0157  0.0378
  317DECAN   C9 3159  10.819   8.630  12.950  0.1439 -0.1379  0.4288
  317DECAN  C10 3160  10.876   8.758  12.887 -0.2563 -0.0332  0.2742
  318DECAN   C1 3161   7.714   5.321   8.423  0.1308  0.0039  0.2813
  318DECAN   C2 3162   7.609   5.237   8.347 -0.1258  0.1397  0.4831
  318DECAN   C3 3163   7.639   5.088   8.328 -0.3647  0.1883 -0.2923
  318DECAN   C4 3164   7.658   5.025   8.467 -0.0613 -0.4918 -0.6343
  318DECAN   C5 3165   7.685   4.874   8.455 -0.0943 -0.5915  0.4809
  318DECAN   C6 3166   7.828   4.827   8.421 -0.1857 -0.2284 -0.4261
  318DECAN   C7 3167   7.900   4.905   8.310  0.1042 -0.0838 -0.1368
  318DECAN   C8 3168   8.053   4.892   8.315  0.1058  0.0738  0.2625
  318DECAN   C9 3169   8.128   4.994   8.228 -0.3912  0.3704  0.1771
  318DECAN  C10 3170   8.281   4.972   8.226 -0.3460  0.7059 -0.6173
  319DECAN   C1 3171   5.780   2.611  13.869  0.3159 -0.0928  0.1019
  319DECAN   C2 3172   5.881   2.703  13.940  0.6335 -0.2961 -0.0826
  319DECAN   C3 3173   5.878   2.684  14.093 -0.0386  0.7003  0.0342
  319DECAN   C4 3174   6.018   2.712  14.150 -0.0989  1.2892 -0.0933
  319DECAN   C5 3175   6.028   2.695  14.302  0.3041 -0.1083 -0.2545
  319DECAN   C6 3176   6.159   2.732  14.373  0.1195  0.2321 -0.0849
  319DECAN   C7 3177   6.168   2.691  14.521 -0.2378 -0.1594 -0.1701
  319DECAN   C8 3178   6.314   2.709  14.566 -0.3428 -0.1481  0.1712
  319DECAN   C9 3179   6.425   2.647  14.479 -0.2981  0.0124  0.1121
  319DECAN  C10 3180   6.565   2.617  14.537 -0.5865 -0.3060  0.6556
  320DECAN   C1 3181   3.728  10.763   4.129  0.2952 -0.5240 -0.0403
  320DECAN   C2 3182   3.703  10.703   4.269  0.0290  0.1441  0.2000
  320DECAN   C3 3183   3.639  10.565   4.246  0.6394 -0.1446  0.2079
  320DECAN   C4 3184   3.625  10.488   4.378 -0.0853  0.0424  0.2465
  320DECAN   C5 3185   3.542  10.561   4.486  0.0649  0.1104  0.3161
  320DECAN   C6 3186   3.554  10.513   4.632  0.6513  0.2546  0.3174
  320DECAN   C7 3187   3.456  10.581   4.728 -0.4036 -0.6819 -0.0676
  320DECAN   C8 3188   3.326  10.499   4.736 -0.3918 -0.7530 -0.5874
  320DECAN   C9 3189   3.215  10.561   4.823  0.1862 -0.1189 -0.2894
  320DECAN  C10 3190   3.265  10.589   4.966 -0.4594  0.3713 -0.1556
  321DECAN   C1 3191   9.010   2.819  14.968  0.0321 -0.4034 -0.3179
  321DECAN   C2 3192   8.942   2.886  15.089 -0.2214  0.2248 -0.8022
  321DECAN   C3 3193   8.819   2.964  15.037 -0.3548  0.2331 -0.4782
  321DECAN   C4 3194   8.871   3.084  14.956  0.4004  0.0727 -0.2468
  321DECAN   C5 3195   8.958   3.175  15.044 -0.0595  0.4138 -0.1417
  321DECAN   C6 3196   9.022   3.304  14.989  0.2144  0.3439  0.0153
  321DECAN   C7 3197   9.126   3.262  14.883 -0.1183 -0.2643 -0.0763
  321DECAN   C8 3198   9.204   3.376  14.814 -0.1191 -0.1190  0.1589
  321DECAN   C9 3199   9.309   3.337  14.708 -0.1812  0.3207 -0.0638
  321DECAN  C10 3200   9.387   3.447  14.634 -0.5641  0.2154 -0.6342
  322DECAN   C1 3201  10.055  11.086  12.301 -0.1544 -0.3174  0.1282
  322DECAN   C2 3202   9.976  11.073  12.432  0.5914  0.2525  0.6378
  322DECAN   C3 3203   9.910  10.936  12.454  0.6467  0.1487  0.1576
  322DECAN   C4 3204   9.817  10.910  12.574  0.0562  0.1133 -0.3041
  322DECAN   C5 3205   9.673  10.959  12.547 -0.2101 -0.6634 -0.3303
  322DECAN   C6 3206   9.655  11.107  12.508 -0.1428 -0.5156  0.1936
  322DECAN   C7 3207   9.509  11.153  12.530  0.0841 -0.0912  0.8582
  322DECAN   C8 3208   9.461   0.031  12.449 -0.4633 -0.4021  0.7128
  322DECAN   C9 3209   9.491   0.161  12.525 -0.4228 -0.0197  0.0469
  322DECAN  C10 3210   9.425   0.285  12.463 -0.3590  0.0457  0.1112
  323DECAN   C1 3211   2.031   0.384  12.114 -0.1935 -0.4611  0.0599
  323DECAN   C2 3212   1.984   0.492  12.015  0.1037  0.2199  0.6453
  323DECAN   C3 3213   1.845   0.467  11.952  0.3549  0.5054 -0.0398
  323DECAN   C4 3214   1.799   0.586  11.866 -0.3556  0.3264  0.0879
  323DECAN   C5 3215   1.675   0.561  11.778 -0.1146 -0.6742  0.0194
  323DECAN   C6 3216   1.553   0.547  11.871  0.1651  0.5084  0.5827
  323DECAN   C7 3217   1.554   0.432  11.974  0.0977  0.0354  0.0615
  323DECAN   C8 3218   1.440   0.433  12.077 -0.3316 -0.3149 -0.4030
  323DECAN   C9 3219   1.473   0.331  12.188  0.3888 -0.1067 -0.4149
  323DECAN  C10 3220   1.419   0.365  12.328  1.1276  0.2627 -0.2179
  324DECAN   C1 3221   9.434   6.631  14.680 -0.2752  0.0875 -0.1247
  324DECAN   C2 3222   9.522   6.605  14.803 -0.1971 -0.5197 -0.3085
  324DECAN   C3 3223   9.449   6.544  14.924 -0.1728 -0.2530 -0.1580
  324DECAN   C4 3224   9.556   6.517  15.032  0.1704 -0.0194 -0.4370
  324DECAN   C5 3225   9.621   6.645  15.086 -0.4298  0.2681 -0.3846
  324DECAN   C6 3226   9.736   6.697  14.997 -0.1831  0.0455 -0.1987
  324DECAN   C7 3227   9.854   6.599  15.006 -0.0615  0.1539 -0.5991
  324DECAN   C8 3228   9.969   6.626  14.907  0.0511 -0.1181 -0.5443
  324DECAN   C9 3229  10.080   6.520  14.921  0.2380  0.1026 -0.3204
  324DECAN  C10 3230  10.214   6.553  14.854  0.3702  0.4865  0.1250
  325DECAN   C1 3231   3.854   5.824  10.855 -0.0171  0.0296 -0.8116
  325DECAN   C2 3232   3.979   5.735  10.851  0.0112  0.0408 -0.2906
  325DECAN   C3 3233   4.108   5.807  10.897 -0.1846  0.1079  0.1551
  325DECAN   C4 3234   4.168   5.912  10.802 -0.3877  0.5162  0.4753
  325DECAN   C5 3235   4.317   5.942  10.832 -0.1327 -0.1937 -0.0498
  325DECAN   C6 3236   4.399   6.018  10.726  0.2166 -0.5299 -0.0222
  325DECAN   C7 3237   4.543   6.051  10.768  0.1473 -0.2483 -0.0037
  325DECAN   C8 3238   4.616   6.153  10.678  0.5337 -0.3174  0.2271
  325DECAN   C9 3239   4.735   6.221  10.748  0.3699  0.1201  0.0765
  325DECAN  C10 3240   4.705   6.319  10.863 -0.0739 -0.1313  0.1777
  326DECAN   C1 3241   5.635   9.287   5.630  0.1948 -0.1445  0.1540
  326DECAN   C2 3242   5.488   9.266   5.668  0.0444 -0.2927 -0.5117
  326DECAN   C3 3243   5.414   9.401   5.674 -0.2304 -0.4347 -0.6412
  326DECAN   C4 3244   5.272   9.404   5.733  0.3330  0.3168  0.7158
  326DECAN   C5 3245   5.249   9.542   5.798 -0.0243  0.5179  0.1691
  326DECAN   C6 3246   5.111   9.556   5.865  0.2104 -0.2740  0.8389
  326DECAN   C7 3247   5.108   9.681   5.955  0.5310  0.0106  0.4575
  326DECAN   C8 3248   5.130   9.812   5.877 -0.0405  0.1782  0.5726
  326DECAN   C9 3249   5.121   9.952   5.939 -0.1362  0.3395  0.2002
  326DECAN  C10 3250   4.990   9.972   6.019 -0.0686 -0.9696  0.6576
  327DECAN   C1 3251   7.368   0.777   7.221 -0.3903  0.0740 -0.1644
  327DECAN   C2 3252   7.502   0.845   7.256 -0.2541 -0.1823 -0.1829
  327DECAN   C3 3253   7.517   0.975   7.174  0.2270 -0.1102  0.0178
  327DECAN   C4 3254   7.424   1.087   7.225  0.2691  0.2989 -0.7906
  327DECAN   C5 3255   7.459   1.119   7.371  0.0552 -0.3700 -0.5867
  327DECAN   C6 3256   7.373   1.238   7.418  0.3276 -0.1475 -0.6464
  327DECAN   C7 3257   7.224   1.219   7.386  0.0940 -0.4026  0.5388
  327DECAN   C8 3258   7.136   1.321   7.462 -0.4554 -0.4200 -0.0705
  327DECAN   C9 3259   7.001   1.351   7.394 -0.2793  0.2535 -0.1309
  327DECAN  C10 3260   6.917   1.466   7.453 -0.0101  0.1805  0.3989
  328DECAN   C1 3261   2.693   6.899   9.927  0.0661 -0.4244 -0.3078
  328DECAN   C2 3262   2.617   6.822   9.817  0.1906 -0.2226 -0.5339
  328DECAN   C3 3263   2.671   6.864   9.679  0.0683 -0.3511 -0.6213
  328DECAN   C4 3264   2.643   7.010   9.639 -0.2013 -0.2921 -0.2271
  328DECAN   C5 3265   2.685   7.034   9.492 -0.1719  0.2527 -0.1335
  328DECAN   C6 3266   2.710   7.182   9.459  1.0214  0.1254  0.1570
  328DECAN   C7 3267   2.745   7.217   9.313  0.6679 -0.5620 -0.0977
  328DECAN   C8 3268   2.761   7.369   9.296 -0.0131 -0.4343  0.3520
  328DECAN   C9 3269   2.818   7.392   9.154 -0.0791 -0.5502  0.3065
  328DECAN  C10 3270   2.769   7.530   9.108  1.2442  0.0163  0.5512
  329DECAN   C1 3271   1.419   1.394   8.796  0.1859 -0.1064 -0.0500
  329DECAN   C2 3272   1.468   1.310   8.915  0.1356 -0.1639 -0.0695
  329DECAN   C3 3273   1.460   1.159   8.888 -0.0534 -0.1760  0.0554
  329DECAN   C4 3274   1.579   1.078   8.943 -0.3241 -0.6341 -0.0305
  329DECAN   C5 3275   1.583   0.935   8.886 -0.0555 -0.6833  0.1122
  329DECAN   C6 3276   1.709   0.853   8.917  0.5148  0.2163  0.1898
  329DECAN   C7 3277   1.727   0.716   8.848  0.5916  0.2593  0.1232
  329DECAN   C8 3278   1.791   0.716   8.708 -0.3083  0.1865 -0.2933
  329DECAN   C9 3279   1.822   0.582   8.638 -0.3146 -0.0633  0.1758
  329DECAN  C10 3280   1.864   0.604   8.492 -0.6137  0.2786  0.1393
  330DECAN   C1 3281   3.996  10.793   4.578  0.5070  0.4950 -0.6513
  330DECAN   C2 3282   3.861  10.835   4.641  0.7871  0.1600  0.1942
  330DECAN   C3 3283   3.868  10.978   4.697 -0.3140  0.1179  0.4585
  330DECAN   C4 3284   3.736  11.029   4.756 -0.7665 -0.2868 -0.1941
  330DECAN   C5 3285   3.748  11.174   4.807  0.2598 -0.2898 -0.4223
  330DECAN   C6 3286   3.785   0.037   4.703  0.4187 -0.1956 -0.2707
  330DECAN   C7 3287   3.667   0.065   4.607  0.1300  0.0070  0.1371
  330DECAN   C8 3288   3.691   0.184   4.512 -0.4202 -0.3471 -0.4526
  330DECAN   C9 3289   3.589   0.225   4.404 -0.4246  0.3665 -0.1801
  330DECAN  C10 3290   3.632   0.363   4.351  0.4498 -0.0372 -0.5384
  331DECAN   C1 3291  10.045   7.027   8.211  0.4377  0.1549  0.4252
  331DECAN   C2 3292  10.145   6.945   8.127  0.3573  0.2784  0.2092
  331DECAN   C3 3293  10.135   6.794   8.155 -0.0963  0.1531 -0.6123
  331DECAN   C4 3294  10.009   6.724   8.100 -0.2717  0.0579 -0.1006
  331DECAN   C5 3295   9.988   6.575   8.132 -0.2843  0.0072 -0.3450
  331DECAN   C6 3296   9.841   6.527   8.135 -0.1975 -0.2361 -0.0188
  331DECAN   C7 3297   9.746   6.626   8.205  0.2061  0.2727 -0.1885
  331DECAN   C8 3298   9.710   6.752   8.124 -0.1579  0.0732 -0.3363
  331DECAN   C9 3299   9.648   6.859   8.215 -0.4802 -0.2490 -0.1751
  331DECAN  C10 3300   9.595   6.974   8.127  0.2638 -0.4309 -0.8635
  332DECAN   C1 3301   5.476   9.632   8.103 -0.2429  0.3384  0.4224
  332DECAN   C2 3302   5.576   9.719   8.024 -0.3607  0.1570  0.0720
  332DECAN   C3 3303   5.513   9.847   7.968  0.2114  0.0096 -0.9399
  332DECAN   C4 3304   5.601   9.928   7.871  0.5772  0.2766 -0.3929
  332DECAN   C5 3305   5.532  10.061   7.834  0.0183  0.0801 -0.0807
  332DECAN   C6 3306   5.621  10.186   7.816  0.2692 -0.1173 -0.2237
  332DECAN   C7 3307   5.684  10.216   7.953  0.0401  0.5291 -0.2588
  332DECAN   C8 3308   5.779  10.099   7.985 -0.1110  0.6091  0.5124
  332DECAN   C9 3309   5.833  10.106   8.129 -0.0073 -0.5742  0.5415
  332DECAN  C10 3310   5.925   9.986   8.156  0.4507 -0.3932 -0.1862
  333DECAN   C1 3311   3.193   2.368   5.958 -0.3366  0.4457  0.0005
  333DECAN   C2 3312   3.067   2.280   5.967  0.0280 -0.0356  0.4325
  333DECAN   C3 3313   3.107   2.159   6.054  0.1956 -0.2762  0.0271
  333DECAN   C4 3314   3.003   2.060   6.109 -0.0577 -0.0248  0.0051
  333DECAN   C5 3315   3.064   1.929   6.163  0.4488  0.0399 -0.3996
  333DECAN   C6 3316   2.971   1.807   6.175  0.2246  0.2761  0.3606
  333DECAN   C7 3317   3.029   1.669   6.210  0.1358  0.2187  0.2814
  333DECAN   C8 3318   2.924   1.556   6.203  1.1162 -0.6814 -0.0740
  333DECAN   C9 3319   2.868   1.552   6.060 -0.2594 -1.0965  0.4670
  333DECAN  C10 3320   2.961   1.490   5.954  0.6713 -0.0396  0.6480
  334DECAN   C1 3321   4.420   8.696  13.518 -0.3099  0.1117 -0.3301
  334DECAN   C2 3322   4.569   8.717  13.552 -0.3061  0.1934 -0.3981
  334DECAN   C3 3323   4.660   8.610  13.489 -0.3327  0.4418 -0.8622
  334DECAN   C4 3324   4.804   8.592  13.540 -0.3645 -0.2056 -0.9950
  334DECAN   C5 3325   4.882   8.481  13.468  0.2006 -0.3627 -0.1633
  334DECAN   C6 3326   5.019   8.449  13.530  0.5524 -0.0970 -0.7922
  334DECAN   C7 3327   5.087   8.333  13.455  0.1243 -0.6338 -0.3654
  334DECAN   C8 3328   5.230   8.299  13.500  0.0210  0.2031  0.6167
  334DECAN   C9 3329   5.240   8.253  13.647 -0.1882 -0.8285  0.3141
  334DECAN  C10 3330   5.377   8.262  13.717 -0.1203  0.1805  0.0665
  335DECAN   C1 3331  10.065   6.215   7.814 -0.0457  0.1383  0.0336
  335DECAN   C2 3332   9.932   6.157   7.865  0.0087 -0.2272 -0.2365
  335DECAN   C3 3333   9.817   6.253   7.903 -0.0576 -0.3216 -0.2023
  335DECAN   C4 3334   9.680   6.196   7.944 -0.1012 -0.2339 -0.2253
  335DECAN   C5 3335   9.571   6.204   7.835 -0.1571 -0.3216 -0.1755
  335DECAN   C6 3336   9.631   6.137   7.710  0.0086  0.1207 -0.3355
  335DECAN   C7 3337   9.529   6.099   7.601 -0.3461 -0.1594  0.0914
  335DECAN   C8 3338   9.418   6.012   7.664 -0.2512  0.1125  0.6425
  335DECAN   C9 3339   9.300   6.001   7.565  0.1786 -0.2020  0.1576
  335DECAN  C10 3340   9.181   5.945   7.645  0.2047  0.0954  0.4042
  336DECAN   C1 3341   3.361   2.889   7.014  0.4754  0.0066 -0.3356
  336DECAN   C2 3342   3.464   2.774   7.006  0.0738 -0.4017  0.2260
  336DECAN   C3 3343   3.536   2.739   7.138  0.0241 -0.3746  0.2607
  336DECAN   C4 3344   3.454   2.662   7.243 -0.4680 -0.5100 -0.2133
  336DECAN   C5 3345   3.389   2.540   7.176 -0.6901 -0.4277 -0.1458
  336DECAN   C6 3346   3.298   2.462   7.273  0.1604 -0.0118  1.0108
  336DECAN   C7 3347   3.243   2.332   7.213 -0.2974  0.5031  0.2953
  336DECAN   C8 3348   3.144   2.340   7.094 -0.6432  0.6868  0.5943
  336DECAN   C9 3349   3.091   2.207   7.038 -0.0263  0.6957 -0.0291
  336DECAN  C10 3350   3.021   2.124   7.148  0.5428  0.5187  0.2044
  337DECAN   C1 3351   9.559   6.999  10.380  0.4276  0.2860 -0.0516
  337DECAN   C2 3352   9.497   6.876  10.450 -0.6630  0.5118 -0.5881
  337DECAN   C3 3353   9.472   6.890  10.601  0.0969  0.4713 -0.4560
  337DECAN   C4 3354   9.413   6.763  10.666  0.0350  0.5275 -0.4035
  337DECAN   C5 3355   9.277   6.708  10.619  0.2144 -0.0419 -0.2621
  337DECAN   C6 3356   9.164   6.794  10.678  0.1809 -0.5596  0.4308
  337DECAN   C7 3357   9.030   6.784  10.603  0.1636  0.2153  0.3472
  337DECAN   C8 3358   8.925   6.886  10.650  0.1361  0.2428  0.2253
  337DECAN   C9 3359   8.873   6.880  10.795 -0.2048  0.1504  0.1011
  337DECAN  C10 3360   8.980   6.922  10.898 -0.1137  0.6502 -0.1942
  338DECAN   C1 3361   3.970   4.811   6.970  0.2654  0.1296 -0.3029
  338DECAN   C2 3362   3.943   4.860   7.113 -0.1480 -0.1988 -0.2652
  338DECAN   C3 3363   3.852   4.984   7.124  0.4224  0.1886  0.1667
  338DECAN   C4 3364   3.784   5.004   7.261 -0.1102 -0.8164  0.0594
  338DECAN   C5 3365   3.884   5.078   7.352 -0.4942 -0.0282 -0.1465
  338DECAN   C6 3366   3.816   5.137   7.477 -0.4039 -0.4153  0.0902
  338DECAN   C7 3367   3.759   5.024   7.564 -0.5189 -0.1104  0.4120
  338DECAN   C8 3368   3.864   4.912   7.577  0.0678  0.4038  0.1442
  338DECAN   C9 3369   3.818   4.781   7.643  0.3815 -0.2226 -0.8624
  338DECAN  C10 3370   3.929   4.679   7.674 -0.0796 -0.4379  0.1249
  339DECAN   C1 3371  10.316   0.249  10.249  0.0843  0.2002 -0.3097
  339DECAN   C2 3372  10.271   0.102  10.248  0.0642  0.2065 -0.3343
  339DECAN   C3 3373  10.171   0.053  10.354  0.4745  0.3285  0.1119
  339DECAN   C4 3374  10.137  11.148  10.330  0.5900  0.2226  0.5792
  339DECAN   C5 3375  10.030  11.100  10.430 -0.1616  0.2504 -0.1992
  339DECAN   C6 3376   9.981  10.954  10.433  0.0348  0.1864 -0.0906
  339DECAN   C7 3377   9.891  10.932  10.556  0.3509 -0.4036  0.0407
  339DECAN   C8 3378   9.818  10.797  10.554  0.2398 -0.3396 -0.3069
  339DECAN   C9 3379   9.735  10.764  10.680  0.4744  0.1245 -0.0325
  339DECAN  C10 3380   9.587  10.799  10.658  0.5305  0.3651 -0.0420
  340DECAN   C1 3381   2.486  10.161   4.734  0.5294  0.3726  0.0887
  340DECAN   C2 3382   2.435  10.306   4.719  0.5714  0.4922  1.0688
  340DECAN   C3 3383   2.285  10.327   4.748  0.3849  0.4442  0.1615
  340DECAN   C4 3384   2.242  10.474   4.764 -0.2341  0.2490  0.2816
  340DECAN   C5 3385   2.094  10.481   4.808 -0.5189 -0.2330 -0.5684
  340DECAN   C6 3386   2.076  10.429   4.952 -0.8397 -0.3101 -0.6364
  340DECAN   C7 3387   2.107  10.279   4.971  0.5437  0.0665  0.1934
  340DECAN   C8 3388   2.139  10.231   5.114 -0.4336 -0.3449  0.2780
  340DECAN   C9 3389   2.183  10.084   5.121 -0.0636 -0.2254  0.4734
  340DECAN  C10 3390   2.153  10.020   5.258 -0.0110 -0.3382  0.4323
  341DECAN   C1 3391   4.985   2.487  13.768  0.1904 -0.0688 -0.1845
  341DECAN   C2 3392   4.839   2.441  13.785  0.1435 -0.0066 -0.4137
  341DECAN   C3 3393   4.837   2.289  13.764 -0.2073  0.0446 -0.7461
  341DECAN   C4 3394   4.698   2.222  13.760 -0.0787 -0.2602 -0.2584
  341DECAN   C5 3395   4.699   2.069  13.746 -0.2844 -0.2565 -0.3197
  341DECAN   C6 3396   4.767   2.011  13.620 -0.1343 -0.2427 -0.2449
  341DECAN   C7 3397   4.762   1.858  13.610 -0.0755 -0.2819  0.2896
  341DECAN   C8 3398   4.639   1.790  13.547  0.0795 -0.3184  0.0202
  341DECAN   C9 3399   4.663   1.653  13.482  0.2858 -0.1867 -0.1807
  341DECAN  C10 3400   4.698   1.533  13.571 -0.5414 -0.0461  0.3479
  342DECAN   C1 3401   4.317   6.222  11.475  0.2555 -0.0829  0.1122
  342DECAN   C2 3402   4.172   6.269  11.494  0.2541 -0.0850  0.1067
  342DECAN   C3 3403   4.083   6.147  11.525 -0.1341  0.0911 -0.3130
  342DECAN   C4 3404   4.121   6.061  11.647 -0.5116 -0.0073 -0.2631
  342DECAN   C5 3405   4.273   6.038  11.650 -0.4799  0.2292 -0.0391
  342DECAN   C6 3406   4.335   5.946  11.757  0.0768  0.1285 -0.4433
  342DECAN   C7 3407   4.487   5.927  11.739  0.1950  0.3513  0.2687
  342DECAN   C8 3408   4.575   6.053  11.726  0.6098  0.0482  0.1129
  342DECAN   C9 3409   4.706   6.030  11.649  0.3164 -0.4636 -0.2386
  342DECAN  C10 3410   4.811   5.932  11.703  0.7091  0.1454  0.1065
  343DECAN   C1 3411   5.817   3.270  14.043  0.1975 -0.0304  0.3554
  343DECAN   C2 3412   5.714   3.382  14.070  0.1773  0.1117 -0.2989
  343DECAN   C3 3413   5.749   3.522  14.017  0.1992  0.2773  0.1528
  343DECAN   C4 3414   5.641   3.632  14.016 -0.1468 -0.0603 -0.4374
  343DECAN   C5 3415   5.673   3.756  13.931  0.4776  0.1132  0.0434
  343DECAN   C6 3416   5.561   3.861  13.930 -0.1521 -0.5379  0.7052
  343DECAN   C7 3417   5.455   3.866  13.818 -0.1522 -0.4867  0.7071
  343DECAN   C8 3418   5.327   3.948  13.843 -0.0235  0.0916 -0.4549
  343DECAN   C9 3419   5.367   4.093  13.810 -0.3020  0.1956 -0.3358
  343DECAN  C10 3420   5.241   4.178  13.833 -0.7401 -0.5119 -0.0852
  344DECAN   C1 3421   3.115  10.249  12.963  0.5009 -0.3717  0.6760
  344DECAN   C2 3422   3.237  10.341  12.982  0.1936  0.1163  0.3175
  344DECAN   C3 3423   3.363  10.277  13.044  0.2985 -0.2716 -0.2775
  344DECAN   C4 3424   3.494  10.357  13.033  0.0195  0.2496  0.1249
  344DECAN   C5 3425   3.483  10.509  13.052 -0.1085  0.1623  0.7816
  344DECAN   C6 3426   3.609  10.589  13.012 -0.1043 -0.1898  0.0743
  344DECAN   C7 3427   3.599  10.739  13.043 -0.1023 -0.1836  0.0490
  344DECAN   C8 3428   3.735  10.804  13.013  0.0136 -0.1178  0.6973
  344DECAN   C9 3429   3.748  10.955  13.037 -0.4264  0.0394 -0.0254
  344DECAN  C10 3430   3.865  11.023  12.963 -0.0158 -0.2120  0.3856
  345DECAN   C1 3431   4.768   6.107   8.129 -0.1389 -0.0476  0.2293
  345DECAN   C2 3432   4.685   6.215   8.202 -0.1816  0.0055  0.1016
  345DECAN   C3 3433   4.757   6.294   8.313  0.2831  0.0622 -0.2352
  345DECAN   C4 3434   4.812   6.217   8.435 -0.2928 -0.2119 -0.1427
  345DECAN   C5 3435   4.847   6.316   8.547 -0.5230 -0.0986 -0.1692
  345DECAN   C6 3436   4.890   6.253   8.681 -0.1427  0.1885 -0.1550
  345DECAN   C7 3437   4.934   6.361   8.782 -0.4012  0.0652  0.0917
  345DECAN   C8 3438   4.993   6.310   8.915  0.2629 -0.0379 -0.2393
  345DECAN   C9 3439   5.044   6.424   9.005  0.3897 -0.1743 -0.1395
  345DECAN  C10 3440   5.105   6.379   9.139  0.0016  0.1859  0.1580
  346DECAN   C1 3441   9.449   1.888  10.478 -0.4180  0.3213  0.4552
  346DECAN   C2 3442   9.331   1.971  10.424 -0.3748 -0.0907 -0.2821
  346DECAN   C3 3443   9.240   2.023  10.537 -0.0383 -0.2444  0.0611
  346DECAN   C4 3444   9.117   2.101  10.488  0.1297 -0.1700 -0.2526
  346DECAN   C5 3445   9.015   2.128  10.601 -0.0361  0.0827 -0.4603
  346DECAN   C6 3446   8.880   2.167  10.538 -0.0582  0.7517 -0.0068
  346DECAN   C7 3447   8.771   2.187  10.645  0.0743 -0.0921  0.2980
  346DECAN   C8 3448   8.697   2.322  10.648 -0.4811 -0.3838 -0.1018
  346DECAN   C9 3449   8.646   2.360  10.508  0.2286  0.1722 -0.2189
  346DECAN  C10 3450   8.612   2.508  10.482 -0.3311  0.1434  0.3018
  347DECAN   C1 3451  10.033  10.516   7.746 -0.1324 -0.6065 -0.3152
  347DECAN   C2 3452  10.053  10.383   7.819 -0.0332 -0.3800  0.0747
  347DECAN   C3 3453  10.152  10.394   7.937 -0.2941 -0.4507  0.3005
  347DECAN   C4 3454  10.206  10.258   7.986  0.5762 -0.2712 -0.1641
  347DECAN   C5 3455  10.282  10.244   8.119  0.0449 -0.0275  0.1651
  347DECAN   C6 3456  10.365  10.115   8.125 -0.2806 -0.2536 -0.1351
  347DECAN   C7 3457  10.286  10.004   8.053 -0.1179 -0.2024 -0.3945
  347DECAN   C8 3458  10.147   9.978   8.113 -0.0568  0.3976  0.0218
  347DECAN   C9 3459  10.150   9.945   8.264 -0.2797  0.0473 -0.0482
  347DECAN  C10 3460  10.247   9.828   8.287 -0.0841  0.0978 -0.6098
  348DECAN   C1 3461   7.464  10.207  11.009  0.1302  0.1768  0.4066
  348DECAN   C2 3462   7.326  10.274  11.026  0.1925  0.2992  0.4365
  348DECAN   C3 3463   7.296  10.384  10.922 -0.2965 -0.2792 -0.0451
  348DECAN   C4 3464   7.335  10.349  10.777  1.0542  0.3082  0.1584
  348DECAN   C5 3465   7.303  10.464  10.680  0.7716  0.2130  0.1343
  348DECAN   C6 3466   7.301  10.429  10.531 -0.6188  0.1044  0.1736
  348DECAN   C7 3467   7.231  10.524  10.432  0.0970 -0.0295 -0.4721
  348DECAN   C8 3468   7.273  10.500  10.286  0.3177  0.1430 -0.4369
  348DECAN   C9 3469   7.232  10.622  10.202  0.1861  0.5281  0.1788
  348DECAN  C10 3470   7.296  10.757  10.240 -0.0336  0.7119 -0.1019
  349DECAN   C1 3471   2.628   7.869   6.972  0.0550  0.7587 -0.3124
  349DECAN   C2 3472   2.681   7.747   6.893 -0.0767  0.4494  0.0715
  349DECAN   C3 3473   2.569   7.655   6.841  0.2303  0.1550 -0.0710
  349DECAN   C4 3474   2.625   7.515   6.812  0.1753  0.1961 -0.3759
  349DECAN   C5 3475   2.532   7.422   6.731 -0.0981 -0.2705  0.4621
  349DECAN   C6 3476   2.594   7.287   6.691 -0.4245 -0.2809 -0.0156
  349DECAN   C7 3477   2.676   7.213   6.799 -0.3305 -0.2000 -0.0299
  349DECAN   C8 3478   2.733   7.080   6.746 -0.2284 -0.2439  0.1900
  349DECAN   C9 3479   2.815   7.113   6.619 -0.1006  0.0106  0.3366
  349DECAN  C10 3480   2.887   6.986   6.571 -0.4069 -0.3535  0.8257
  350DECAN   C1 3481   2.294   2.810  10.588  0.5722 -0.1703  0.0679
  350DECAN   C2 3482   2.164   2.756  10.651  0.6729 -0.0778  0.3518
  350DECAN   C3 3483   2.146   2.605  10.626 -0.2345  0.1003 -0.1068
  350DECAN   C4 3484   2.212   2.510  10.728  0.1979  0.3062 -0.1894
  350DECAN   C5 3485   2.220   2.367  10.669 -0.3333  0.0966  0.2362
  350DECAN   C6 3486   2.279   2.252  10.753  0.0463  0.0957 -0.0300
  350DECAN   C7 3487   2.190   2.212  10.872 -0.0639 -0.0335 -0.1538
  350DECAN   C8 3488   2.246   2.089  10.946 -0.7716 -0.1577  0.1816
  350DECAN   C9 3489   2.242   1.966  10.854  0.5315  0.1827 -0.3515
  350DECAN  C10 3490   2.103   1.934  10.797  0.2427 -0.6269  0.7816
  351DECAN   C1 3491  10.997   5.925   7.214 -0.2425 -0.6139  0.2648
  351DECAN   C2 3492  11.091   5.804   7.197  0.0949 -0.2472 -0.4933
  351DECAN   C3 3493  11.003   5.690   7.142 -0.6556 -0.0297  0.2411
  351DECAN   C4 3494  10.934   5.720   7.008  0.1663  0.3126 -0.1100
  351DECAN   C5 3495  10.887   5.591   6.939 -0.2377  0.1891  0.3882
  351DECAN   C6 3496  10.890   5.607   6.786  0.2177 -0.4050  0.3336
  351DECAN   C7 3497  10.783   5.710   6.746  0.0797 -0.3157  0.9199
  351DECAN   C8 3498  10.810   5.769   6.606 -0.5662 -0.8087  0.5773
  351DECAN   C9 3499  10.699   5.857   6.545  0.3786 -0.2263 -0.3508
  351DECAN  C10 3500  10.681   5.971   6.647  0.2244 -0.5270 -0.0395
  352DECAN   C1 3501   4.587   1.081   7.305 -0.0002 -0.3249 -0.4491
  352DECAN   C2 3502   4.603   0.975   7.416 -0.1932  0.1927  0.0804
  352DECAN   C3 3503   4.544   0.838   7.377  0.5117  0.0711 -0.5931
  352DECAN   C4 3504   4.396   0.800   7.394  0.5665  0.0876 -0.0351
  352DECAN   C5 3505   4.334   0.795   7.535  0.2068  0.4512 -0.1775
  352DECAN   C6 3506   4.194   0.737   7.562  0.1569  0.5977 -0.1205
  352DECAN   C7 3507   4.084   0.808   7.483 -0.3256  0.0169  0.0190
  352DECAN   C8 3508   3.945   0.744   7.500 -0.3711  0.0175 -0.3428
  352DECAN   C9 3509   3.856   0.841   7.418 -0.0167  0.7935  0.1827
  352DECAN  C10 3510   3.705   0.819   7.439  0.0785  0.1151  0.1816
  353DECAN   C1 3511   7.410   0.380   6.050  0.3785 -0.1656  1.1041
  353DECAN   C2 3512   7.263   0.376   6.003  0.7058  0.5055 -0.0036
  353DECAN   C3 3513   7.241   0.447   5.868 -0.1156  0.6321  0.1912
  353DECAN   C4 3514   7.089   0.439   5.843 -0.1194 -0.4548  0.4805
  353DECAN   C5 3515   7.031   0.510   5.719 -0.7115  0.0844  1.0573
  353DECAN   C6 3516   6.893   0.452   5.685 -0.3488 -0.0968 -0.1592
  353DECAN   C7 3517   6.830   0.547   5.582  0.2619  0.1143 -0.3417
  353DECAN   C8 3518   6.702   0.484   5.524  0.0458  0.2335 -0.0002
  353DECAN   C9 3519   6.643   0.560   5.405 -0.1055 -0.2859 -0.2595
  353DECAN  C10 3520   6.504   0.507   5.365 -0.0756 -0.5625  0.0064
  354DECAN   C1 3521   2.128   0.739  14.169  0.6745 -0.3760  0.1465
  354DECAN   C2 3522   2.143   0.586  14.163  0.4597 -0.4110  0.4725
  354DECAN   C3 3523   2.246   0.526  14.261  0.1389 -0.2975  0.8827
  354DECAN   C4 3524   2.385   0.501  14.200 -0.3140 -0.0556 -0.2835
  354DECAN   C5 3525   2.475   0.397  14.270 -0.5517 -0.1212 -0.0709
  354DECAN   C6 3526   2.438   0.252  14.233 -0.2293 -0.2203 -0.0132
  354DECAN   C7 3527   2.462   0.152  14.347  0.4104  0.4247  0.4299
  354DECAN   C8 3528   2.608   0.109  14.366  0.2714 -0.2113  0.0810
  354DECAN   C9 3529   2.643  11.237  14.461  0.1374  0.1231  0.5402
  354DECAN  C10 3530   2.577  11.101  14.432 -0.5734  0.4813  0.4543
  355DECAN   C1 3531   9.692   2.351  11.732  0.2774  0.4811 -0.0108
  355DECAN   C2 3532   9.817   2.373  11.644  0.6301  0.1015  0.3889
  355DECAN   C3 3533   9.786   2.364  11.494  0.3766 -0.7371  0.4819
  355DECAN   C4 3534   9.909   2.352  11.402  0.1945 -0.0104  0.1262
  355DECAN   C5 3535   9.886   2.310  11.256  0.0269 -0.0314  0.1598
  355DECAN   C6 3536   9.991   2.237  11.170  0.2815  0.5348 -0.0141
  355DECAN   C7 3537   9.950   2.240  11.021 -0.7965  0.9162  0.2819
  355DECAN   C8 3538   9.844   2.139  10.974 -0.3092  0.5933 -0.1339
  355DECAN   C9 3539   9.862   1.987  10.990 -0.0266  0.5918 -0.4715
  355DECAN  C10 3540   9.738   1.898  10.964  0.7529 -0.3457 -1.0786
  356DECAN   C1 3541  10.591   2.129  12.915  0.4414  0.7813 -0.0896
  356DECAN   C2 3542  10.481   2.024  12.890  0.5041  0.6638  0.1287
  356DECAN   C3 3543  10.356   2.052  12.975  0.2641 -0.1694  0.0516
  356DECAN   C4 3544  10.243   1.949  12.953 -0.1604  0.3408 -0.1707
  356DECAN   C5 3545  10.114   1.978  13.032 -0.0550  0.8506 -0.1845
  356DECAN   C6 3546   9.995   1.902  12.971 -0.2547  0.5883  0.5266
  356DECAN   C7 3547  10.012   1.749  12.980 -0.4718  0.5511  0.3353
  356DECAN   C8 3548  10.033   1.700  13.125  0.3084 -0.0403  0.0284
  356DECAN   C9 3549  10.003   1.549  13.128  0.3814 -0.0533  0.1090
  356DECAN  C10 3550   9.995   1.478  13.265  0.3760 -0.2199  0.0233
  357DECAN   C1 3551   5.618   9.748   8.399 -0.0978 -0.0632 -0.1327
  357DECAN   C2 3552   5.717   9.733   8.515 -0.3844 -0.4954  0.0549
  357DECAN   C3 3553   5.857   9.686   8.472 -0.4623 -0.3532 -0.3554
  357DECAN   C4 3554   5.864   9.551   8.398 -0.1138 -0.5365  0.0089
  357DECAN   C5 3555   6.002   9.482   8.402  0.1496 -0.0361 -0.4187
  357DECAN   C6 3556   6.022   9.350   8.326  0.5446 -0.1093 -0.1886
  357DECAN   C7 3557   5.895   9.263   8.337  0.0015  0.6485 -0.3843
  357DECAN   C8 3558   5.892   9.141   8.243 -0.0876 -0.2595  0.7803
  357DECAN   C9 3559   6.002   9.046   8.293  0.4303 -0.0086  0.1315
  357DECAN  C10 3560   6.016   8.927   8.196 -0.1459  0.3713 -0.4187
  358DECAN   C1 3561   5.563   0.556   7.078 -0.0052  0.0579  0.4040
  358DECAN   C2 3562   5.505   0.422   7.128 -0.3110  0.0141 -0.0692
  358DECAN   C3 3563   5.607   0.308   7.116 -0.0754  0.2486 -0.3252
  358DECAN   C4 3564   5.561   0.167   7.157  0.2510  0.0776 -0.5400
  358DECAN   C5 3565   5.681   0.073   7.178  0.2119  0.2004  0.2538
  358DECAN   C6 3566   5.772   0.077   7.054 -0.1372 -0.3782 -0.0257
  358DECAN   C7 3567   5.844   0.213   7.047 -0.1711 -0.3654 -0.1335
  358DECAN   C8 3568   5.945   0.226   6.932 -0.2860 -0.1809 -0.2136
  358DECAN   C9 3569   6.067   0.134   6.951 -0.0785  0.1496  0.0763
  358DECAN  C10 3570   6.180   0.185   6.860 -0.6264  0.7109 -0.2948
  359DECAN   C1 3571   4.162   2.809   8.076  0.3263 -0.0665  0.1308
  359DECAN   C2 3572   4.205   2.944   8.136 -0.3632  0.3533 -0.3207
  359DECAN   C3 3573   4.321   2.944   8.237 -0.2425 -0.1591 -0.4579
  359DECAN   C4 3574   4.314   2.867   8.371  0.4175 -0.7152 -0.7356
  359DECAN   C5 3575   4.455   2.846   8.429  0.1114  0.1617  0.3473
  359DECAN   C6 3576   4.450   2.749   8.549  0.4415 -0.4776 -0.1528
  359DECAN   C7 3577   4.590   2.692   8.578  0.4638 -0.3095  0.0822
  359DECAN   C8 3578   4.582   2.576   8.680  0.1408 -0.1164  0.2771
  359DECAN   C9 3579   4.714   2.510   8.723  0.4511 -0.0051 -0.4819
  359DECAN  C10 3580   4.824   2.499   8.615  0.5250  0.0729 -0.4138
  360DECAN   C1 3581   6.739  10.715   9.057 -0.1642 -0.1063  0.1592
  360DECAN   C2 3582   6.733  10.866   9.090  0.0873 -0.0296 -0.1420
  360DECAN   C3 3583   6.625  10.946   9.015  0.1747 -0.0686 -0.3087
  360DECAN   C4 3584   6.615  11.098   9.037 -0.4379 -0.0860 -0.4424
  360DECAN   C5 3585   6.534  11.188   8.942 -0.6656  0.0881 -0.0833
  360DECAN   C6 3586   6.522   0.082   9.008 -0.8620 -0.1950  0.4779
  360DECAN   C7 3587   6.462   0.177   8.903  0.4302 -0.0109 -0.1134
  360DECAN   C8 3588   6.415   0.314   8.957 -0.1961 -0.0491 -0.5511
  360DECAN   C9 3589   6.345   0.406   8.855 -0.4391  0.5721  0.1628
  360DECAN  C10 3590   6.432   0.429   8.730  0.0003 -0.1282  0.3290
  361DECAN   C1 3591   8.096   0.157  11.554  0.2464 -0.3654 -0.4241
  361DECAN   C2 3592   8.047   0.014  11.526 -0.0439 -0.2766 -0.3778
  361DECAN   C3 3593   8.032  11.242  11.373  0.0073 -0.2227 -0.3887
  361DECAN   C4 3594   7.970  11.103  11.348 -0.6375 -0.1049  0.5381
  361DECAN   C5 3595   7.943  11.052  11.206 -0.2236 -0.0856  0.4537
  361DECAN   C6 3596   7.891  10.907  11.200 -0.0849 -0.1255  0.2048
  361DECAN   C7 3597   7.792  10.891  11.082  0.5173 -0.3176 -0.2823
  361DECAN   C8 3598   7.741  10.751  11.046  0.1465 -0.2636  0.0258
  361DECAN   C9 3599   7.844  10.649  10.992  0.1245 -0.4843  0.3968
  361DECAN  C10 3600   7.784  10.513  10.951 -0.5265 -0.1056  0.0704
  362DECAN   C1 3601   2.530   6.385   7.092  0.1340 -0.0128 -0.0743
  362DECAN   C2 3602   2.600   6.509   7.151  0.1708  0.1973 -0.5540
  362DECAN   C3 3603   2.717   6.473   7.244 -0.2810  0.1276 -0.0044
  362DECAN   C4 3604   2.784   6.602   7.297  0.4076 -0.0569 -0.4087
  362DECAN   C5 3605   2.878   6.595   7.419 -0.1375  0.1097  0.0259
  362DECAN   C6 3606   2.949   6.724   7.462  0.0956 -0.1211  0.3307
  362DECAN   C7 3607   2.993   6.825   7.354  0.1734 -0.5224 -0.0149
  362DECAN   C8 3608   2.874   6.899   7.290  0.1863 -0.7868 -0.3464
  362DECAN   C9 3609   2.924   6.990   7.175  0.1345 -0.3012  0.0108
  362DECAN  C10 3610   2.949   6.910   7.046 -0.5436  0.1642 -0.4126
  363DECAN   C1 3611   2.253   7.498   6.947 -0.4106 -0.0641  0.4379
  363DECAN   C2 3612   2.160   7.612   6.904 -0.3673 -0.3433 -0.4106
  363DECAN   C3 3613   2.112   7.697   7.023  0.4514 -0.0466 -0.2890
  363DECAN   C4 3614   1.993   7.790   6.993  0.2198 -0.3326 -0.2647
  363DECAN   C5 3615   1.964   7.892   7.104 -0.5699 -0.4318 -0.3724
  363DECAN   C6 3616   1.944   7.831   7.244 -0.1127 -0.0512 -0.1353
  363DECAN   C7 3617   2.071   7.763   7.299 -0.2228  0.0454  0.2403
  363DECAN   C8 3618   2.048   7.708   7.441 -0.8917 -0.0510  0.0997
  363DECAN   C9 3619   2.150   7.603   7.490 -0.9056 -0.2141 -0.2165
  363DECAN  C10 3620   2.133   7.547   7.632  0.1879  0.4266  0.1767
  364DECAN   C1 3621   2.065   5.385   9.678  0.4330  0.1737 -0.1335
  364DECAN   C2 3622   2.099   5.414   9.826 -0.3424 -0.0865  0.0976
  364DECAN   C3 3623   2.247   5.396   9.862 -0.3074  0.3170  0.1511
  364DECAN   C4 3624   2.276   5.424  10.011 -0.6974  0.2966  0.2323
  364DECAN   C5 3625   2.420   5.379  10.044 -0.6924 -0.2889 -0.5627
  364DECAN   C6 3626   2.430   5.230  10.080 -0.6983 -0.0163  0.6142
  364DECAN   C7 3627   2.391   5.134   9.966 -0.0653  0.6502 -0.1825
  364DECAN   C8 3628   2.391   4.992  10.025 -0.2796  0.6525 -0.1749
  364DECAN   C9 3629   2.279   4.946  10.121  0.0360  0.4163  0.0841
  364DECAN  C10 3630   2.281   5.019  10.256  0.5447  0.5309  0.0198
  365DECAN   C1 3631   4.311   4.176   5.242  0.2714  0.1853  0.1736
  365DECAN   C2 3632   4.177   4.250   5.257  0.0947 -0.1382  0.2052
  365DECAN   C3 3633   4.069   4.159   5.319 -0.2622 -0.0475 -0.2795
  365DECAN   C4 3634   3.935   4.222   5.359  0.0627  0.3473  0.1906
  365DECAN   C5 3635   3.827   4.136   5.427  0.1314  0.2296  0.1481
  365DECAN   C6 3636   3.712   4.212   5.495 -0.1352  0.0563 -0.1047
  365DECAN   C7 3637   3.604   4.117   5.551  0.2121 -0.1215  0.2663
  365DECAN   C8 3638   3.651   4.001   5.641  0.4814 -0.0125  0.2681
  365DECAN   C9 3639   3.541   3.909   5.697  0.5478 -0.1015  0.2527
  365DECAN  C10 3640   3.595   3.781   5.765  0.0585 -0.1652  0.5280
  366DECAN   C1 3641  10.081   9.738   9.722 -0.5804 -0.3153  0.3289
  366DECAN   C2 3642  10.040   9.724   9.574 -0.2792  0.0575  0.2118
  366DECAN   C3 3643   9.890   9.711   9.544 -0.3888  1.0777  0.2662
  366DECAN   C4 3644   9.879   9.719   9.390 -0.4121  0.0927  0.2101
  366DECAN   C5 3645   9.985   9.804   9.318 -0.4842 -0.5393 -0.6562
  366DECAN   C6 3646  10.122   9.738   9.301 -0.2596 -0.1405 -0.3956
  366DECAN   C7 3647  10.232   9.830   9.246 -0.4184 -0.1847 -0.7838
  366DECAN   C8 3648  10.366   9.753   9.249 -0.4832 -0.2797 -0.2716
  366DECAN   C9 3649  10.398   9.716   9.395  0.6859  0.0571 -0.4358
  366DECAN  C10 3650  10.538   9.654   9.411  0.4559 -0.4937 -0.5477
  367DECAN   C1 3651   5.056   9.120  14.751 -0.1869 -0.0975  0.7991
  367DECAN   C2 3652   4.998   9.257  14.791 -0.5636 -0.2115  0.6526
  367DECAN   C3 3653   4.882   9.300  14.700  0.1967  0.1660 -0.1595
  367DECAN   C4 3654   4.804   9.422  14.754 -0.2320 -0.1958  0.0516
  367DECAN   C5 3655   4.708   9.478  14.647  0.6130  0.4403 -0.3899
  367DECAN   C6 3656   4.611   9.583  14.704 -0.1500 -0.2059 -0.4789
  367DECAN   C7 3657   4.523   9.532  14.820 -0.1254 -0.2520 -0.4800
  367DECAN   C8 3658   4.384   9.491  14.767 -0.1783 -0.5484 -0.1095
  367DECAN   C9 3659   4.380   9.343  14.726 -0.2822 -0.5562 -0.0727
  367DECAN  C10 3660   4.252   9.285  14.664 -0.4165 -0.8410  0.4684
  368DECAN   C1 3661   8.527   3.202  11.133  0.0766  0.3458  0.6259
  368DECAN   C2 3662   8.571   3.106  11.246  0.0919  0.2806  0.5647
  368DECAN   C3 3663   8.483   3.135  11.369 -0.0628  0.2695  0.4565
  368DECAN   C4 3664   8.515   3.072  11.506 -0.3186 -0.3831  0.2217
  368DECAN   C5 3665   8.476   3.162  11.624  0.6344  0.3486 -0.0114
  368DECAN   C6 3666   8.486   3.102  11.765 -0.1114  0.1218 -0.0490
  368DECAN   C7 3667   8.427   3.191  11.876 -0.0704 -0.0112  0.0809
  368DECAN   C8 3668   8.274   3.206  11.860 -0.0508 -0.0451 -0.1396
  368DECAN   C9 3669   8.224   3.318  11.953  0.1942 -0.5626  0.6256
  368DECAN  C10 3670   8.086   3.370  11.910  0.6505 -0.1972 -0.4550
  369DECAN   C1 3671   6.510   2.678   4.914 -0.1210 -0.8736  0.0411
  369DECAN   C2 3672   6.514   2.710   5.065  0.3669 -0.4050 -0.0702
  369DECAN   C3 3673   6.652   2.713   5.133  0.1737  0.4648  0.2926
  369DECAN   C4 3674   6.648   2.680   5.283 -0.3919  0.2411  0.2281
  369DECAN   C5 3675   6.790   2.699   5.339 -0.3554  0.1914  0.1537
  369DECAN   C6 3676   6.811   2.668   5.488 -0.2139 -0.1150  0.0697
  369DECAN   C7 3677   6.805   2.518   5.524 -0.4943 -0.0298  0.3879
  369DECAN   C8 3678   6.912   2.440   5.444 -0.3888  0.0851  0.4156
  369DECAN   C9 3679   6.921   2.290   5.478  0.2869 -0.0926 -0.5358
  369DECAN  C10 3680   6.941   2.250   5.625 -0.9179  1.3831  0.0517
  370DECAN   C1 3681   2.019   8.743   9.238 -0.5289 -0.4653  0.1956
  370DECAN   C2 3682   1.924   8.797   9.347 -0.5043  0.3756 -0.1889
  370DECAN   C3 3683   1.907   8.699   9.464 -0.4531  0.2561 -0.2800
  370DECAN   C4 3684   1.782   8.740   9.545 -0.4733  0.5769 -0.4736
  370DECAN   C5 3685   1.756   8.673   9.681  0.1042  0.6903 -0.3025
  370DECAN   C6 3686   1.870   8.705   9.779 -0.1715 -0.1872  0.3156
  370DECAN   C7 3687   1.872   8.833   9.865  0.0530  0.0484 -0.0420
  370DECAN   C8 3688   1.777   8.821   9.985 -0.0726 -0.5914 -0.1999
  370DECAN   C9 3689   1.641   8.757   9.954 -0.4656  0.2753 -0.2973
  370DECAN  C10 3690   1.547   8.761  10.076  0.1172 -0.2807  0.1740
  371DECAN   C1 3691   2.825   7.763  14.363 -0.3661 -0.0828  0.7504
  371DECAN   C2 3692   2.795   7.615  14.394  0.0537 -0.2560  0.3480
  371DECAN   C3 3693   2.906   7.514  14.360 -0.0889 -0.2686 -0.0864
  371DECAN   C4 3694   2.892   7.389  14.450  0.1601 -0.2106  0.0318
  371DECAN   C5 3695   2.992   7.275  14.420  0.2875 -0.0116 -0.3126
  371DECAN   C6 3696   2.961   7.148  14.501  0.3218 -0.2775 -0.7155
  371DECAN   C7 3697   2.872   7.056  14.415 -0.0898 -0.2570 -0.3161
  371DECAN   C8 3698   2.811   6.938  14.492  0.0093  0.0549  0.2442
  371DECAN   C9 3699   2.747   7.002  14.617  0.4746  0.2231  0.4008
  371DECAN  C10 3700   2.697   6.909  14.729 -0.4353 -0.1775 -0.3211
  372DECAN   C1 3701   2.187   3.221   8.843 -0.1732 -0.1656  0.1903
  372DECAN   C2 3702   2.135   3.272   8.707  1.1229  0.3912 -0.1046
  372DECAN   C3 3703   2.143   3.162   8.600  0.3053  0.4240 -0.2048
  372DECAN   C4 3704   2.281   3.099   8.574  0.2028 -0.3681  1.0788
  372DECAN   C5 3705   2.386   3.197   8.518 -0.5102 -0.1735  0.0493
  372DECAN   C6 3706   2.529   3.140   8.510 -0.5860 -0.3785  0.1368
  372DECAN   C7 3707   2.624   3.245   8.450 -0.7046 -0.4610 -0.1982
  372DECAN   C8 3708   2.769   3.196   8.465 -0.3265  0.5830 -0.3617
  372DECAN   C9 3709   2.878   3.303   8.443  0.4968 -0.2265 -0.2920
  372DECAN  C10 3710   2.877   3.351   8.296 -0.2691 -0.3228 -0.3214
  373DECAN   C1 3711   8.022   6.597  12.963  0.0832 -0.5423 -0.3151
  373DECAN   C2 3712   7.988   6.662  12.828 -0.1037  0.4142  0.1823
  373DECAN   C3 3713   7.861   6.747  12.810 -0.2649  0.1973  0.2962
  373DECAN   C4 3714   7.845   6.791  12.664  0.1228  0.2433  0.2667
  373DECAN   C5 3715   7.698   6.834  12.649  0.0738  0.0003  0.0339
  373DECAN   C6 3716   7.598   6.723  12.685  0.4333 -0.2964  0.1136
  373DECAN   C7 3717   7.448   6.748  12.664  0.3600 -0.5198  0.3603
  373DECAN   C8 3718   7.365   6.660  12.760 -0.2624 -0.2491  0.0736
  373DECAN   C9 3719   7.218   6.649  12.714 -0.3157  0.3238  0.1049
  373DECAN  C10 3720   7.203   6.588  12.574  0.4231 -0.1144  0.2108
  374DECAN   C1 3721   9.633  10.662   4.919  0.0513  0.1675 -0.2465
  374DECAN   C2 3722   9.612  10.813   4.942  0.1935  0.1370  0.0954
  374DECAN   C3 3723   9.461  10.840   4.938  0.1689 -0.0204 -0.0658
  374DECAN   C4 3724   9.404  10.799   4.801 -0.4481  0.5730  0.0029
  374DECAN   C5 3725   9.251  10.813   4.798 -0.4814  0.1675 -0.3584
  374DECAN   C6 3726   9.197  10.955   4.823  0.6723  0.5327  0.1460
  374DECAN   C7 3727   9.044  10.965   4.806  0.6097  0.2811  0.5546
  374DECAN   C8 3728   8.995  11.107   4.774 -0.4183 -0.2659 -0.3818
  374DECAN   C9 3729   9.062  11.159   4.646 -0.0783  0.0252 -0.0893
  374DECAN  C10 3730   9.034   0.066   4.631 -0.6318 -0.0302  0.3794
  375DECAN   C1 3731   6.194   4.404   4.936  0.0496 -0.2244 -0.2001
  375DECAN   C2 3732   6.043   4.428   4.955  0.2416  0.5326  0.4617
  375DECAN   C3 3733   5.966   4.363   5.071 -0.5038 -0.3725 -0.5178
  375DECAN   C4 3734   5.820   4.413   5.060 -0.2166  0.5924 -0.0226
  375DECAN   C5 3735   5.734   4.321   4.972 -0.1383  0.5600 -0.0662
  375DECAN   C6 3736   5.590   4.376   4.976 -0.2254  0.3082  0.3769
  375DECAN   C7 3737   5.515   4.317   4.855  0.4337 -0.0573  0.1450
  375DECAN   C8 3738   5.371   4.360   4.823  0.2776 -0.0559  0.8420
  375DECAN   C9 3739   5.358   4.512   4.808 -0.3166 -0.1569  0.2738
  375DECAN  C10 3740   5.447   4.585   4.910  0.6062 -0.5241 -0.2627
  376DECAN   C1 3741   3.095   7.715   6.518  0.0214  0.2889  0.2291
  376DECAN   C2 3742   3.038   7.746   6.658  0.3076 -0.6559  0.5631
  376DECAN   C3 3743   3.076   7.879   6.726 -0.0598 -0.4656  0.4083
  376DECAN   C4 3744   3.045   7.892   6.877 -0.7268 -0.1357  0.2432
  376DECAN   C5 3745   3.086   8.030   6.932 -0.9689 -0.0111  0.1116
  376DECAN   C6 3746   3.065   8.055   7.082 -0.2724 -0.3113  0.2598
  376DECAN   C7 3747   3.123   8.190   7.128 -0.4130 -0.2565  0.2763
  376DECAN   C8 3748   3.151   8.176   7.279 -0.3420 -0.4400  0.2467
  376DECAN   C9 3749   3.202   8.309   7.339  0.3252 -0.3776 -0.4442
  376DECAN  C10 3750   3.122   8.437   7.370  0.2941 -0.5131  0.0389
  377DECAN   C1 3751   3.266   3.196   9.849 -0.0938 -0.0638  0.3145
  377DECAN   C2 3752   3.340   3.256   9.970 -0.8155  0.2240  0.6221
  377DECAN   C3 3753   3.419   3.154  10.056 -0.4227  0.0447  0.0529
  377DECAN   C4 3754   3.544   3.097   9.987  0.0143  0.3031  0.6220
  377DECAN   C5 3755   3.649   3.197   9.935 -0.3156  0.2746 -0.1234
  377DECAN   C6 3756   3.701   3.297  10.040  0.0750 -0.0771  0.0235
  377DECAN   C7 3757   3.814   3.384   9.982 -0.2563  0.3423  0.0039
  377DECAN   C8 3758   3.769   3.413   9.838 -0.1519 -0.5054 -0.2014
  377DECAN   C9 3759   3.865   3.496   9.751  0.4092 -0.1169  0.7766
  377DECAN  C10 3760   3.851   3.648   9.774  0.1181  0.1162 -0.8095
  378DECAN   C1 3761   2.075   9.382   9.203  0.2715 -0.0341 -0.0688
  378DECAN   C2 3762   2.006   9.508   9.258  0.2009 -0.1781  0.1698
  378DECAN   C3 3763   2.064   9.549   9.395  0.1273 -0.3009  0.2376
  378DECAN   C4 3764   1.999   9.676   9.453  0.8000  0.2541 -0.2026
  378DECAN   C5 3765   2.021   9.723   9.599  0.0861  0.0945 -0.0386
  378DECAN   C6 3766   1.953   9.859   9.618  0.0906  0.1199 -0.2024
  378DECAN   C7 3767   1.985   9.966   9.512  0.4166 -0.2195 -0.4482
  378DECAN   C8 3768   2.130  10.014   9.492  0.5542 -0.3510  0.2319
  378DECAN   C9 3769   2.136  10.122   9.383 -0.1968 -0.1388  0.3939
  378DECAN  C10 3770   2.078  10.078   9.247 -0.2777 -0.6017  0.5781
  379DECAN   C1 3771   8.282   3.692  14.656 -0.3299  0.1631 -0.0729
  379DECAN   C2 3772   8.264   3.792  14.540  0.8050  0.3531 -0.1025
  379DECAN   C3 3773   8.179   3.917  14.571 -0.0827 -0.1862 -0.3005
  379DECAN   C4 3774   8.158   4.009  14.450  0.1663  0.4525  0.1380
  379DECAN   C5 3775   8.079   3.952  14.331  0.8321 -0.0078 -0.0898
  379DECAN   C6 3776   8.055   4.059  14.223 -0.0963 -0.1909 -0.0756
  379DECAN   C7 3777   7.947   4.051  14.114 -0.2704 -0.1533  0.0923
  379DECAN   C8 3778   7.983   4.142  13.994 -0.3784 -0.5648 -0.2554
  379DECAN   C9 3779   7.896   4.088  13.879 -0.7290 -0.7598  0.0991
  379DECAN  C10 3780   7.960   3.959  13.823 -0.1970 -0.2095 -0.5695
  380DECAN   C1 3781   1.242   3.372  12.845  0.0032 -0.7109 -0.0874
  380DECAN   C2 3782   1.118   3.343  12.759 -0.0791  0.1454 -0.2582
  380DECAN   C3 3783   1.100   3.193  12.729  0.0110  0.1113 -0.1415
  380DECAN   C4 3784   1.184   3.146  12.608  0.4870  0.0533  0.2093
  380DECAN   C5 3785   1.137   3.189  12.468  0.8531 -0.1198  0.0333
  380DECAN   C6 3786   1.134   3.343  12.475 -0.2228 -0.1327 -0.0729
  380DECAN   C7 3787   1.126   3.420  12.342  0.3714  0.5381  0.2760
  380DECAN   C8 3788   1.067   3.562  12.330 -0.7075  0.0757 -0.0005
  380DECAN   C9 3789   1.014   3.611  12.194 -0.9287 -0.3401 -0.0643
  380DECAN  C10 3790   0.936   3.743  12.198 -0.0072  0.2284 -0.6439
  381DECAN   C1 3791  10.790  10.661   9.120 -0.5810 -0.2409  0.0623
  381DECAN   C2 3792  10.727  10.670   9.261 -0.0810 -0.3822  0.2939
  381DECAN   C3 3793  10.812  10.612   9.376  0.4881  0.1549  0.1499
  381DECAN   C4 3794  10.773  10.657   9.518 -0.1492  0.2844 -0.0614
  381DECAN   C5 3795  10.883  10.619   9.618 -0.2412 -0.1214 -0.1163
  381DECAN   C6 3796  10.858  10.672   9.760 -0.2062 -0.3247 -0.0322
  381DECAN   C7 3797  11.000  10.675   9.819 -0.3177  0.0496  0.2209
  381DECAN   C8 3798  10.991  10.723   9.965  0.9253 -0.6137  0.5308
  381DECAN   C9 3799  10.879  10.660  10.051  0.5382 -0.1943  0.3359
  381DECAN  C10 3800  10.863  10.726  10.189  0.4545 -0.0626  0.2650
  382DECAN   C1 3801   9.894   1.167   7.821  0.4703  0.1693  0.0454
  382DECAN   C2 3802  10.036   1.227   7.818  0.3601  0.4179 -0.1973
  382DECAN   C3 3803  10.151   1.126   7.839  0.1661  0.4523  1.1379
  382DECAN   C4 3804  10.291   1.190   7.840  0.2594  0.3117 -0.2994
  382DECAN   C5 3805  10.409   1.091   7.844  0.0521  0.0666 -0.2254
  382DECAN   C6 3806  10.548   1.156   7.849  0.1253 -0.1087  0.0364
  382DECAN   C7 3807  10.551   1.258   7.965 -0.0913  0.3915 -0.3962
  382DECAN   C8 3808  10.688   1.317   8.001 -0.1916  0.1759  0.3487
  382DECAN   C9 3809  10.682   1.429   8.106 -0.0773  0.4227  0.0917
  382DECAN  C10 3810  10.812   1.484   8.168  0.4300 -0.3851 -0.2361
  383DECAN   C1 3811  11.344   1.051   9.322  0.1572 -0.1726  0.0970
  383DECAN   C2 3812  11.201   1.099   9.288  0.3170  0.3451  0.1463
  383DECAN   C3 3813  11.180   1.250   9.271 -0.2437  0.2290 -0.2330
  383DECAN   C4 3814  11.042   1.295   9.221 -0.4362 -0.2356 -0.1214
  383DECAN   C5 3815  11.028   1.427   9.141 -0.2911  0.0641  0.3447
  383DECAN   C6 3816  10.888   1.447   9.080 -0.1035 -0.3452 -0.2303
  383DECAN   C7 3817  10.779   1.433   9.188  0.2724  0.1081  0.2119
  383DECAN   C8 3818  10.635   1.424   9.135  0.2187  0.3557  0.3153
  383DECAN   C9 3819  10.537   1.399   9.252 -0.4546  0.1447 -0.2876
  383DECAN  C10 3820  10.482   1.255   9.253 -0.6498  0.2213 -0.0277
  384DECAN   C1 3821   3.298   7.980   7.624 -0.1321  0.2939  0.3568
  384DECAN   C2 3822   3.272   7.867   7.522 -0.4321  0.3468  0.3715
  384DECAN   C3 3823   3.130   7.811   7.534 -0.5426  0.5371 -0.0209
  384DECAN   C4 3824   3.089   7.728   7.658 -0.2434 -0.3021 -0.4787
  384DECAN   C5 3825   2.947   7.668   7.661 -0.2875 -0.1816 -0.0650
  384DECAN   C6 3826   2.924   7.580   7.784  0.3948  0.3388  0.4454
  384DECAN   C7 3827   3.022   7.462   7.796  0.2904  0.1363 -0.5967
  384DECAN   C8 3828   3.022   7.382   7.665  0.2782  0.2398 -0.6595
  384DECAN   C9 3829   3.079   7.239   7.682 -0.1757  0.0318 -0.8688
  384DECAN  C10 3830   3.022   7.139   7.579 -0.2863 -0.2474 -0.5375
  385DECAN   C1 3831   5.987   7.724  14.562  0.0347 -0.6556 -0.0968
  385DECAN   C2 3832   5.911   7.783  14.682  0.2870 -0.3458 -0.0900
  385DECAN   C3 3833   5.758   7.779  14.666  0.2672 -0.0951  0.0326
  385DECAN   C4 3834   5.728   7.863  14.540 -0.0045 -0.3377 -0.0659
  385DECAN   C5 3835   5.587   7.919  14.520  0.3328  0.4516 -0.2770
  385DECAN   C6 3836   5.574   8.010  14.396 -0.0003  0.1986 -0.4313
  385DECAN   C7 3837   5.496   7.944  14.281  0.3601 -0.4563 -0.3070
  385DECAN   C8 3838   5.509   8.013  14.144  1.0003  0.2756  0.1152
  385DECAN   C9 3839   5.476   8.162  14.166  0.8056  0.3097 -0.3977
  385DECAN  C10 3840   5.559   8.232  14.275  0.9460 -0.4233 -0.0266
  386DECAN   C1 3841   4.098   0.894   7.895  0.1566 -0.3250  0.1015
  386DECAN   C2 3842   4.080   1.009   7.996 -0.8485 -0.5479  0.1839
  386DECAN   C3 3843   4.068   0.974   8.146 -0.9374 -0.6439  0.1540
  386DECAN   C4 3844   4.050   1.108   8.220 -0.3836 -0.1790 -0.5399
  386DECAN   C5 3845   4.070   1.087   8.371 -0.1990  0.2442 -0.5049
  386DECAN   C6 3846   4.072   1.226   8.435 -0.6111 -0.4231  0.9902
  386DECAN   C7 3847   3.936   1.299   8.433 -0.5718 -0.3748 -0.1592
  386DECAN   C8 3848   3.931   1.439   8.497  0.7440 -0.2810 -0.2399
  386DECAN   C9 3849   4.008   1.463   8.628  0.0804  0.2582  0.0512
  386DECAN  C10 3850   4.153   1.413   8.630  0.0707  0.2396  0.3388
  387DECAN   C1 3851   7.767   9.937   4.556  0.2344 -0.1021  0.1404
  387DECAN   C2 3852   7.864   9.943   4.675  0.2505 -0.3780  0.1412
  387DECAN   C3 3853   7.980   9.842   4.661  0.3394 -0.2172 -0.3013
  387DECAN   C4 3854   8.080   9.858   4.777 -0.0013 -0.5023  0.0297
  387DECAN   C5 3855   8.131  10.002   4.791 -0.0343 -0.4719 -0.1645
  387DECAN   C6 3856   8.250  10.029   4.885 -0.1626 -0.1135 -0.1021
  387DECAN   C7 3857   8.280  10.180   4.890 -0.2608 -0.0918 -0.1786
  387DECAN   C8 3858   8.169  10.275   4.941 -0.3006 -0.0681 -0.3131
  387DECAN   C9 3859   8.219  10.420   4.952 -0.0665 -0.1524 -0.2755
  387DECAN  C10 3860   8.113  10.502   5.027 -0.1610 -0.3140 -0.2338
  388DECAN   C1 3861   3.520   8.434  10.716 -0.0534  0.4739  0.2625
  388DECAN   C2 3862   3.652   8.362  10.685 -0.3262  0.1404 -0.1322
  388DECAN   C3 3863   3.699   8.395  10.542  0.2685  0.5692  0.1593
  388DECAN   C4 3864   3.832   8.332  10.497  0.0646  0.1222  0.1810
  388DECAN   C5 3865   3.948   8.432  10.484 -0.3912  0.6422  0.0445
  388DECAN   C6 3866   3.940   8.544  10.379 -0.2594  0.4090 -0.2154
  388DECAN   C7 3867   4.039   8.661  10.379 -0.1025  0.2772  0.3618
  388DECAN   C8 3868   4.012   8.749  10.255 -0.4409  0.5207  0.6080
  388DECAN   C9 3869   4.074   8.890  10.251  0.3784  0.1595  0.3288
  388DECAN  C10 3870   4.010   8.985  10.354 -0.8555  0.0692 -0.3330
  389DECAN   C1 3871   6.536   1.380  12.824 -0.3586 -0.1572 -0.2347
  389DECAN   C2 3872   6.667   1.442  12.770  0.0835 -0.4761  0.4495
  389DECAN   C3 3873   6.731   1.372  12.649  0.0841 -0.1157  0.2418
  389DECAN   C4 3874   6.844   1.456  12.587 -0.2822  0.0895 -0.1515
  389DECAN   C5 3875   6.800   1.598  12.544  0.2304  0.3505  0.1787
  389DECAN   C6 3876   6.702   1.594  12.425 -0.0902 -0.6744  0.4608
  389DECAN   C7 3877   6.667   1.735  12.374 -0.1201 -0.8068  0.1166
  389DECAN   C8 3878   6.617   1.735  12.228 -0.8807  0.0526  0.3725
  389DECAN   C9 3879   6.600   1.876  12.170 -0.1216  0.0518  0.1408
  389DECAN  C10 3880   6.492   1.955  12.246 -0.5152 -0.3414 -0.0049
  390DECAN   C1 3881   6.991   2.671   7.434 -0.2047 -0.0312 -0.0268
  390DECAN   C2 3882   7.003   2.552   7.337 -0.3148 -0.2949  0.2781
  390DECAN   C3 3883   7.117   2.554   7.233 -0.4602  0.1258  0.1247
  390DECAN   C4 3884   7.086   2.453   7.121  0.5820  0.5362 -0.5422
  390DECAN   C5 3885   7.209   2.421   7.034  0.5743  0.0785 -0.3817
  390DECAN   C6 3886   7.230   2.270   7.013 -0.3005 -0.1540  0.3737
  390DECAN   C7 3887   7.115   2.195   6.944 -0.4041  0.4084 -0.0672
  390DECAN   C8 3888   7.132   2.043   6.964 -0.1918  0.4523  0.0876
  390DECAN   C9 3889   7.154   1.996   7.109 -0.0712  0.1795 -0.0188
  390DECAN  C10 3890   7.158   1.843   7.126 -0.3756  0.1987  0.2312
  391DECAN   C1 3891   8.490   5.784   9.808 -0.2464 -0.2572  0.5610
  391DECAN   C2 3892   8.477   5.682   9.693 -0.2129  0.2768  0.0771
  391DECAN   C3 3893   8.506   5.728   9.549  0.7370 -0.0539  0.1583
  391DECAN   C4 3894   8.470   5.612   9.453  0.2386  0.0920  0.1688
  391DECAN   C5 3895   8.463   5.652   9.305  0.1924  0.3704  0.2446
  391DECAN   C6 3896   8.596   5.689   9.236  0.1782  0.2775  0.1661
  391DECAN   C7 3897   8.595   5.695   9.082  0.0621  0.3570  0.1693
  391DECAN   C8 3898   8.723   5.741   9.010  0.2811 -0.4965  0.0056
  391DECAN   C9 3899   8.754   5.892   9.010  0.1747 -0.4726  0.5781
  391DECAN  C10 3900   8.898   5.910   8.961 -0.2048  0.9150 -0.0631
  392DECAN   C1 3901   7.052   7.706  14.055 -0.6408  0.9858 -0.2160
  392DECAN   C2 3902   7.186   7.782  14.073  0.3074 -0.6325 -0.2499
  392DECAN   C3 3903   7.230   7.828  13.933 -0.1841  0.8198  0.0571
  392DECAN   C4 3904   7.354   7.919  13.925  0.5437 -0.1454  0.0959
  392DECAN   C5 3905   7.420   7.924  13.786 -0.3968  0.5297 -0.3421
  392DECAN   C6 3906   7.567   7.971  13.785  0.1254 -1.0373 -0.3340
  392DECAN   C7 3907   7.649   7.966  13.656 -0.1725 -0.5666 -0.5466
  392DECAN   C8 3908   7.795   8.007  13.684 -0.4138 -0.0944  0.0242
  392DECAN   C9 3909   7.860   8.073  13.561 -0.0766 -0.3060  0.0875
  392DECAN  C10 3910   8.010   8.101  13.577 -0.0815  0.0089 -0.4194
  393DECAN   C1 3911  10.004   8.402   9.782  0.1591  0.1575  0.4792
  393DECAN   C2 3912   9.885   8.322   9.837  0.0327 -0.0060 -0.0340
  393DECAN   C3 3913   9.758   8.351   9.754  0.4150 -0.0329 -0.6326
  393DECAN   C4 3914   9.732   8.503   9.767 -0.4457 -0.2077 -0.2276
  393DECAN   C5 3915   9.662   8.525   9.902 -0.3288  0.1223 -0.2207
  393DECAN   C6 3916   9.637   8.676   9.922  0.4388  0.2256  0.0279
  393DECAN   C7 3917   9.587   8.707  10.064 -0.6003  0.6004 -0.4100
  393DECAN   C8 3918   9.444   8.667  10.105 -0.2408  0.1608  0.4407
  393DECAN   C9 3919   9.400   8.717  10.245 -0.4666  0.7741  0.1559
  393DECAN  C10 3920   9.514   8.709  10.348 -0.3802 -0.3933 -0.0167
  394DECAN   C1 3921   2.017   6.304   6.124 -0.5336  0.2877  0.2375
  394DECAN   C2 3922   2.028   6.458   6.130  0.4041  0.2323 -0.0013
  394DECAN   C3 3923   2.135   6.492   6.235  0.6631  0.0617 -0.2091
  394DECAN   C4 3924   2.112   6.422   6.371  0.7405  0.4589  0.0110
  394DECAN   C5 3925   1.979   6.443   6.445  0.2914 -0.5024 -0.5003
  394DECAN   C6 3926   1.994   6.379   6.585 -0.3331  0.0802 -0.1642
  394DECAN   C7 3927   1.861   6.351   6.658 -0.3526  0.3528 -0.0916
  394DECAN   C8 3928   1.866   6.308   6.806 -0.0279  0.1100 -0.1713
  394DECAN   C9 3929   1.915   6.426   6.891  0.4697  0.0249 -0.3337
  394DECAN  C10 3930   2.059   6.463   6.850  0.3335  0.0344 -0.8031
  395DECAN   C1 3931   4.092   6.693  12.358 -1.2075  0.3659  1.4345
  395DECAN   C2 3932   3.998   6.768  12.261 -0.0791 -0.3866 -0.2766
  395DECAN   C3 3933   4.041   6.905  12.207 -0.1757 -0.0321  0.5322
  395DECAN   C4 3934   3.948   6.970  12.103 -0.2427  0.4823  0.9093
  395DECAN   C5 3935   4.001   7.091  12.024  0.0186 -0.4395 -0.3641
  395DECAN   C6 3936   4.125   7.071  11.936  0.2893  0.4986 -0.2116
  395DECAN   C7 3937   4.153   7.181  11.832 -0.5597  0.3207 -0.6336
  395DECAN   C8 3938   4.083   7.149  11.699 -0.6162 -0.3433 -0.4479
  395DECAN   C9 3939   3.991   7.264  11.653 -0.5258 -0.0929 -0.0055
  395DECAN  C10 3940   3.902   7.228  11.533 -0.2950  0.2018 -0.2678
  396DECAN   C1 3941   3.226   2.336   5.543  0.0249  0.0234 -0.6022
  396DECAN   C2 3942   3.083   2.331   5.487 -0.2524 -0.0527  0.1050
  396DECAN   C3 3943   3.080   2.281   5.342 -0.3160 -0.4063  0.2273
  396DECAN   C4 3944   2.948   2.277   5.262 -0.2248  0.3325  0.0309
  396DECAN   C5 3945   2.836   2.185   5.315  0.1001 -0.2160 -0.2179
  396DECAN   C6 3946   2.699   2.221   5.255  0.0738  0.1895  0.0781
  396DECAN   C7 3947   2.579   2.142   5.311  0.2829  0.1582  0.4881
  396DECAN   C8 3948   2.587   1.989   5.297 -0.1766  0.2239 -0.6424
  396DECAN   C9 3949   2.724   1.942   5.351 -0.5909  0.2485  0.4446
  396DECAN  C10 3950   2.733   1.788   5.360  0.2082  0.2711  0.0342
  397DECAN   C1 3951   3.910   1.628   6.391  0.4911  0.3639 -0.2254
  397DECAN   C2 3952   3.960   1.482   6.395 -0.0135  0.1976  0.0716
  397DECAN   C3 3953   3.960   1.413   6.533  0.1295 -0.0103 -0.0322
  397DECAN   C4 3954   4.035   1.279   6.533  0.3693  0.1231 -0.0471
  397DECAN   C5 3955   4.033   1.221   6.675  0.4881  0.1666 -0.0271
  397DECAN   C6 3956   4.136   1.112   6.711 -0.4707 -0.6611  0.2840
  397DECAN   C7 3957   4.170   1.088   6.859  0.0388  0.1151  0.2993
  397DECAN   C8 3958   4.236   1.206   6.933  0.2965  0.1868 -0.0436
  397DECAN   C9 3959   4.308   1.169   7.064  0.4576 -0.1334 -0.2199
  397DECAN  C10 3960   4.228   1.090   7.169  0.0816 -0.2158 -0.5656
  398DECAN   C1 3961   4.714   9.643   6.167 -0.2993  0.2194  0.0943
  398DECAN   C2 3962   4.578   9.712   6.147 -0.4315 -0.1010 -0.1160
  398DECAN   C3 3963   4.531   9.765   6.284 -0.2910 -0.5908  0.1249
  398DECAN   C4 3964   4.445   9.891   6.267  0.7514  0.1655  0.3666
  398DECAN   C5 3965   4.420   9.974   6.394  0.0506  0.1238  0.2625
  398DECAN   C6 3966   4.271  10.013   6.402 -0.1211 -0.2988 -0.7941
  398DECAN   C7 3967   4.192   9.881   6.397  0.3282 -0.6198  0.3519
  398DECAN   C8 3968   4.044   9.892   6.358  0.4178  0.4510  0.2735
  398DECAN   C9 3969   3.970   9.963   6.473 -0.3718  0.1554 -0.0467
  398DECAN  C10 3970   3.816   9.966   6.467 -0.3821  0.0939  0.1986
  399DECAN   C1 3971   3.247   5.869   4.697 -0.1568 -0.1290  0.3649
  399DECAN   C2 3972   3.198   5.904   4.839 -0.0917  0.2842  0.2856
  399DECAN   C3 3973   3.080   5.811   4.873  0.4427 -0.5496 -0.1230
  399DECAN   C4 3974   2.947   5.853   4.808  0.2411 -0.2393  0.4832
  399DECAN   C5 3975   2.837   5.766   4.869  0.0059 -0.1405  0.2030
  399DECAN   C6 3976   2.706   5.768   4.787 -0.0911  0.3877  0.3660
  399DECAN   C7 3977   2.589   5.696   4.857  0.2296 -0.5655 -0.0585
  399DECAN   C8 3978   2.548   5.745   4.997  0.2282 -0.2380 -0.1729
  399DECAN   C9 3979   2.472   5.877   5.020  0.3922 -0.1860  0.0848
  399DECAN  C10 3980   2.339   5.877   4.942 -0.0101 -0.3169  0.7646
  400DECAN   C1 3981  10.871   5.858   8.382 -0.4043  0.1816  0.0387
  400DECAN   C2 3982  10.792   5.797   8.264 -0.8347  0.4982  0.1612
  400DECAN   C3 3983  10.808   5.644   8.253  0.8131  0.6801 -0.2884
  400DECAN   C4 3984  10.740   5.592   8.125  0.3515 -0.3141  0.3434
  400DECAN   C5 3985  10.685   5.449   8.125 -0.3541 -0.0461 -0.0892
  400DECAN   C6 3986  10.588   5.426   8.242  0.0465 -0.3062  0.1915
  400DECAN   C7 3987  10.646   5.432   8.385 -0.7876 -0.9526  0.5638
  400DECAN   C8 3988  10.740   5.313   8.414  0.5057 -0.0824 -0.0074
  400DECAN   C9 3989  10.793   5.303   8.558  0.4500  0.5880  0.0623
  400DECAN  C10 3990  10.851   5.434   8.614  0.4219  0.3197  0.7257
  401DECAN   C1 3991   6.488   9.947  10.761  0.5897 -0.1137 -0.1476
  401DECAN   C2 3992   6.483   9.813  10.686 -0.0224 -0.1658 -0.0123
  401DECAN   C3 3993   6.424   9.813  10.544  0.1420 -0.1917 -0.0811
  401DECAN   C4 3994   6.396   9.663  10.525  0.1571 -0.1827 -0.1675
  401DECAN   C5 3995   6.271   9.604  10.594  0.1773 -0.1165 -0.0723
  401DECAN   C6 3996   6.275   9.451  10.596 -0.0042 -0.1251 -0.3762
  401DECAN   C7 3997   6.149   9.383  10.654 -0.0758  0.0679 -0.3082
  401DECAN   C8 3998   6.174   9.233  10.672 -0.1050  0.0647 -0.2885
  401DECAN   C9 3999   6.052   9.158  10.728  0.1731  0.2144  0.5375
  401DECAN  C10 4000   5.921   9.216  10.672  0.5127  0.4217 -0.0511
  402DECAN   C1 4001   5.881  11.191  13.811 -0.4072  0.1197 -0.2831
  402DECAN   C2 4002   6.005  11.148  13.731 -0.3101  0.4391 -0.3066
  402DECAN   C3 4003   5.975  11.138  13.580 -0.0597  0.3844 -0.3540
  402DECAN   C4 4004   6.070  11.222  13.493  0.3651 -0.2508 -0.5062
  402DECAN   C5 4005   6.034  11.238  13.344 -0.0033  0.0588 -0.3834
  402DECAN   C6 4006   5.897   0.064  13.342 -0.2198 -0.3558 -0.2019
  402DECAN   C7 4007   5.852   0.119  13.205  0.1406  0.6129  0.0599
  402DECAN   C8 4008   5.707   0.168  13.186 -0.1511 -0.3698 -0.3250
  402DECAN   C9 4009   5.666   0.204  13.042  0.0149 -0.1741 -0.3242
  402DECAN  C10 4010   5.704   0.337  12.975  0.1727  0.1163  0.3366
  403DECAN   C1 4011   5.052   7.006  11.069  0.1333  0.2201 -0.4203
  403DECAN   C2 4012   5.058   7.153  11.112  0.2430  0.1796 -0.2976
  403DECAN   C3 4013   5.179   7.187  11.202  0.2296 -0.1264 -0.1655
  403DECAN   C4 4014   5.168   7.113  11.337  0.5174 -0.4049 -0.2951
  403DECAN   C5 4015   5.285   7.140  11.434 -0.2333  0.4215  0.3966
  403DECAN   C6 4016   5.251   7.091  11.576 -0.3316 -0.1154  0.1897
  403DECAN   C7 4017   5.228   7.201  11.681  0.3520 -0.1783  0.4081
  403DECAN   C8 4018   5.162   7.157  11.813 -0.1891 -0.4047  0.0614
  403DECAN   C9 4019   5.174   7.248  11.937 -0.0919 -0.3043 -0.0223
  403DECAN  C10 4020   5.089   7.201  12.056  0.0267 -0.4678 -0.0006
  404DECAN   C1 4021   2.301   2.224   4.208  0.6253 -0.1494  0.2236
  404DECAN   C2 4022   2.321   2.361   4.275 -0.0593  0.2360 -0.3533
  404DECAN   C3 4023   2.458   2.428   4.256 -0.1444  0.5369  0.0599
  404DECAN   C4 4024   2.498   2.448   4.108  0.2130 -0.1249  0.0633
  404DECAN   C5 4025   2.540   2.596   4.102 -0.1660 -0.0082  0.2581
  404DECAN   C6 4026   2.622   2.625   3.975  0.1562 -0.2563  0.4072
  404DECAN   C7 4027   2.687   2.765   3.976 -0.0962 -0.1384  0.7370
  404DECAN   C8 4028   2.780   2.785   3.855 -0.3466 -0.0827  0.5530
  404DECAN   C9 4029   2.849   2.922   3.869 -0.3251 -0.0940  0.5597
  404DECAN  C10 4030   2.764   3.050   3.866  0.3819  0.3689 -0.4466
  405DECAN   C1 4031   1.140   0.798   9.054  0.1690  0.6454  0.6702
  405DECAN   C2 4032   1.043   0.892   8.979  0.3180  0.1832 -0.1013
  405DECAN   C3 4033   1.086   1.035   8.940  0.7025  0.2003  0.3736
  405DECAN   C4 4034   0.980   1.106   8.854  0.5764  0.0683  0.4197
  405DECAN   C5 4035   1.006   1.255   8.829 -0.1899  0.1515  0.0864
  405DECAN   C6 4036   0.917   1.317   8.720  0.0351 -0.2239 -0.3112
  405DECAN   C7 4037   0.959   1.434   8.629  1.0765  0.2304  0.7325
  405DECAN   C8 4038   1.080   1.411   8.537  0.8591  0.4252  0.3963
  405DECAN   C9 4039   1.095   1.545   8.461 -0.1380  0.4453  0.2224
  405DECAN  C10 4040   1.204   1.537   8.353  0.0066 -0.9601  0.4546
  406DECAN   C1 4041   8.798   6.676  13.457  0.2465 -0.2705  0.1305
  406DECAN   C2 4042   8.678   6.582  13.472  0.0522  0.0200  0.3938
  406DECAN   C3 4043   8.706   6.441  13.418 -0.3435  0.0541  0.0937
  406DECAN   C4 4044   8.600   6.338  13.462  0.0833 -0.1948  0.5590
  406DECAN   C5 4045   8.642   6.194  13.429 -0.4374 -0.2467  0.0934
  406DECAN   C6 4046   8.627   6.159  13.280  0.3620 -0.0272 -0.0426
  406DECAN   C7 4047   8.677   6.019  13.238  0.3056 -0.0103 -0.1668
  406DECAN   C8 4048   8.636   5.999  13.091  0.3074 -0.6020 -0.0874
  406DECAN   C9 4049   8.685   5.869  13.024  0.0453 -0.7374 -0.0184
  406DECAN  C10 4050   8.609   5.855  12.892 -0.8386  0.4742  0.3413
  407DECAN   C1 4051   9.333   6.689   4.642  0.2498  0.3606 -0.1752
  407DECAN   C2 4052   9.234   6.630   4.540  0.1239  0.1317  0.0802
  407DECAN   C3 4053   9.101   6.573   4.594  0.3062 -0.1189  0.2664
  407DECAN   C4 4054   8.997   6.540   4.486  0.6702  0.3316 -0.2280
  407DECAN   C5 4055   8.914   6.415   4.521  0.2662  0.5759 -0.3077
  407DECAN   C6 4056   8.814   6.388   4.407  0.1730  0.3914 -0.1827
  407DECAN   C7 4057   8.667   6.429   4.424  0.0031 -0.1405 -0.3392
  407DECAN   C8 4058   8.575   6.381   4.310 -0.3300 -0.0805 -0.0974
  407DECAN   C9 4059   8.432   6.438   4.319  0.0360  0.7756  0.3617
  407DECAN  C10 4060   8.334   6.391   4.210  0.3071  0.8809  0.0724
  408DECAN   C1 4061   8.312   7.723   3.924  0.6067 -0.2624 -0.2479
  408DECAN   C2 4062   8.357   7.664   4.059  0.0087  0.1559  0.1423
  408DECAN   C3 4063   8.268   7.682   4.184 -0.2308  0.0500 -0.0132
  408DECAN   C4 4064   8.131   7.615   4.165 -0.2117 -0.0096  0.0571
  408DECAN   C5 4065   8.036   7.674   4.058 -0.0131  0.1401 -0.0366
  408DECAN   C6 4066   7.914   7.581   4.043 -0.0847  0.2924 -0.4107
  408DECAN   C7 4067   7.845   7.590   3.906 -0.2762  0.3434 -0.3124
  408DECAN   C8 4068   7.714   7.512   3.884 -0.2537  0.2857 -0.2377
  408DECAN   C9 4069   7.609   7.557   3.987 -0.2655 -0.4609  0.0861
  408DECAN  C10 4070   7.644   7.533   4.134 -0.0071  0.2273  0.1429
  409DECAN   C1 4071   8.355   1.551  12.622  0.5229 -0.5293  0.8020
  409DECAN   C2 4072   8.438   1.664  12.687 -0.2049  0.9826 -0.8077
  409DECAN   C3 4073   8.419   1.676  12.839 -0.3929  0.1473 -0.7596
  409DECAN   C4 4074   8.492   1.791  12.911 -0.4947 -0.2155 -0.0600
  409DECAN   C5 4075   8.507   1.789  13.064  1.0191 -0.2254 -0.1914
  409DECAN   C6 4076   8.568   1.919  13.121  0.4771 -0.1912  0.3216
  409DECAN   C7 4077   8.590   1.929  13.273  0.2183  0.3773  0.3236
  409DECAN   C8 4078   8.689   1.831  13.339 -0.6802 -0.3982  0.5255
  409DECAN   C9 4079   8.690   1.685  13.291 -0.6184 -0.4362  0.6417
  409DECAN  C10 4080   8.773   1.590  13.379 -0.0697  0.0308  0.6312
  410DECAN   C1 4081   8.089   4.906  14.284  0.2604  0.0601  0.7448
  410DECAN   C2 4082   7.963   4.989  14.313  0.2919  0.1322  0.6763
  410DECAN   C3 4083   7.991   5.140  14.300  0.5121  0.0388  0.0123
  410DECAN   C4 4084   7.869   5.228  14.272 -0.2863 -0.9910  0.1796
  410DECAN   C5 4085   7.793   5.226  14.138 -0.3671  0.0005  0.1969
  410DECAN   C6 4086   7.749   5.085  14.092 -0.7845  0.1167  0.2369
  410DECAN   C7 4087   7.693   5.081  13.949 -0.4926 -0.3127  0.1329
  410DECAN   C8 4088   7.592   5.196  13.934  0.2302  0.3270  0.1014
  410DECAN   C9 4089   7.489   5.186  14.049  0.1372  0.4845  0.0331
  410DECAN  C10 4090   7.398   5.309  14.063 -0.1269  0.3214 -0.2197
  411DECAN   C1 4091   3.876   5.380   3.742  0.3698  0.2187  0.1532
  411DECAN   C2 4092   3.970   5.265   3.700 -0.1113 -0.0178 -0.2771
  411DECAN   C3 4093   4.106   5.260   3.771 -0.1773 -0.3273 -0.1701
  411DECAN   C4 4094   4.111   5.179   3.902 -0.3784 -0.0203  0.0276
  411DECAN   C5 4095   4.248   5.190   3.970 -0.3911 -0.2148  0.0829
  411DECAN   C6 4096   4.350   5.124   3.875 -0.3561 -0.2404  0.1383
  411DECAN   C7 4097   4.489   5.170   3.923 -0.2446 -0.0670 -0.3442
  411DECAN   C8 4098   4.593   5.088   3.844  0.0820 -0.5753  0.5876
  411DECAN   C9 4099   4.734   5.150   3.857 -0.0236 -0.2593  0.2445
  411DECAN  C10 4100   4.844   5.056   3.803  0.3483  0.2890  0.0460
  412DECAN   C1 4101   1.197   1.027  10.719  0.0271  0.2496 -0.1325
  412DECAN   C2 4102   1.139   0.901  10.653  0.1378  0.2206 -0.1752
  412DECAN   C3 4103   1.091   0.910  10.507 -0.2240  0.3765 -0.0485
  412DECAN   C4 4104   0.977   0.819  10.459 -0.1230  0.0654  0.3015
  412DECAN   C5 4105   0.841   0.869  10.512 -0.3569 -0.0873 -0.1503
  412DECAN   C6 4106   0.823   1.019  10.478  0.0449  0.0154  0.0839
  412DECAN   C7 4107   0.695   1.082  10.535  0.0084 -0.1126  0.1455
  412DECAN   C8 4108   0.667   1.224  10.482  0.4312 -0.0971 -0.0437
  412DECAN   C9 4109   0.780   1.325  10.508 -0.1820  0.6856 -0.3722
  412DECAN  C10 4110   0.895   1.304  10.408  0.0492  0.0593  0.0223
  413DECAN   C1 4111   3.820   3.957  13.238 -0.1527 -0.1725  0.1672
  413DECAN   C2 4112   3.901   3.867  13.142 -0.1148  0.1689 -0.1253
  413DECAN   C3 4113   3.922   3.728  13.205 -0.2768  0.0872 -0.2505
  413DECAN   C4 4114   4.003   3.738  13.335  0.1423  0.2112 -0.5209
  413DECAN   C5 4115   4.046   3.613  13.414  0.4607 -0.0396 -1.0845
  413DECAN   C6 4116   4.119   3.646  13.545 -0.1594 -0.3121 -0.6646
  413DECAN   C7 4117   4.125   3.523  13.637  0.0074  0.2140  0.0415
  413DECAN   C8 4118   4.164   3.555  13.783  0.2719  0.5724 -0.1064
  413DECAN   C9 4119   4.077   3.647  13.870  0.4287  0.5503  0.0706
  413DECAN  C10 4120   4.049   3.782  13.802 -0.1266  0.5233  0.2456
  414DECAN   C1 4121   7.528   3.966  15.061  0.0649 -0.0045  0.7196
  414DECAN   C2 4122   7.520   3.830  14.988  0.2740  0.7214 -0.7087
  414DECAN   C3 4123   7.397   3.822  14.896 -0.6832  0.3194  0.5748
  414DECAN   C4 4124   7.390   3.940  14.797 -0.1496  0.0922  0.2603
  414DECAN   C5 4125   7.262   3.946  14.711 -0.1886  0.4577  0.3402
  414DECAN   C6 4126   7.253   4.049  14.597 -1.0374 -0.3251 -0.3159
  414DECAN   C7 4127   7.220   4.187  14.655 -0.2612 -0.1152 -0.3619
  414DECAN   C8 4128   7.209   4.298  14.549 -0.3161 -0.0297 -0.2666
  414DECAN   C9 4129   7.165   4.432  14.612  0.2069 -0.3095  0.7054
  414DECAN  C10 4130   7.116   4.526  14.501  0.3292 -0.7931  0.2415
  415DECAN   C1 4131   8.086   4.561   9.609  0.2908  0.0591  0.0950
  415DECAN   C2 4132   8.005   4.657   9.519 -0.2489  0.0472  0.5636
  415DECAN   C3 4133   7.864   4.675   9.579 -0.3587 -0.0972  0.3507
  415DECAN   C4 4134   7.769   4.746   9.482  0.2366  0.0809 -0.1082
  415DECAN   C5 4135   7.791   4.899   9.476  0.2015  0.0837 -0.1732
  415DECAN   C6 4136   7.697   4.974   9.381 -0.4373 -0.5562 -0.0578
  415DECAN   C7 4137   7.743   4.953   9.235  0.1543  0.5617 -0.0478
  415DECAN   C8 4138   7.890   4.996   9.223  0.2367  0.1327 -0.6146
  415DECAN   C9 4139   7.914   5.139   9.275  0.0920  0.1933 -0.7115
  415DECAN  C10 4140   8.065   5.174   9.278  0.1824 -0.2590  0.8421
  416DECAN   C1 4141   8.461   3.954   6.933  0.1950  0.0327 -0.1491
  416DECAN   C2 4142   8.418   4.100   6.915 -0.1941 -0.0099  0.3770
  416DECAN   C3 4143   8.514   4.200   6.983  0.5816 -0.1136 -0.5368
  416DECAN   C4 4144   8.480   4.347   6.955 -0.1991 -0.1203  0.3143
  416DECAN   C5 4145   8.586   4.450   7.000  0.3846 -0.4786 -0.2187
  416DECAN   C6 4146   8.634   4.440   7.146 -0.0717 -0.0456 -0.0359
  416DECAN   C7 4147   8.741   4.545   7.180 -0.2707 -0.1160  0.8440
  416DECAN   C8 4148   8.679   4.674   7.236 -0.1290  0.0095  0.7135
  416DECAN   C9 4149   8.764   4.799   7.264 -0.7341  0.3779  0.9113
  416DECAN  C10 4150   8.850   4.771   7.389  0.4431  0.1650  0.0607
  417DECAN   C1 4151   6.199   8.455   4.868 -0.3139 -0.0007  0.2294
  417DECAN   C2 4152   6.052   8.429   4.908 -0.3509 -0.0755  0.0462
  417DECAN   C3 4153   5.943   8.517   4.843 -0.3299  0.1340  0.2942
  417DECAN   C4 4154   5.810   8.470   4.904 -0.2431 -0.4512  0.0396
  417DECAN   C5 4155   5.797   8.509   5.052  0.0461  0.3135 -0.1353
  417DECAN   C6 4156   5.658   8.474   5.108  0.2944 -0.1339  0.2029
  417DECAN   C7 4157   5.644   8.323   5.079  0.0837  0.1287 -1.1370
  417DECAN   C8 4158   5.502   8.264   5.079 -0.0956  0.5571 -0.7716
  417DECAN   C9 4159   5.503   8.125   5.014  0.0328  0.1630  0.0689
  417DECAN  C10 4160   5.512   8.146   4.862 -0.2015 -0.2653 -0.0078
  418DECAN   C1 4161   9.264   4.293  13.772 -0.2664  0.2876  0.2414
  418DECAN   C2 4162   9.114   4.326  13.784 -0.1422  1.0304 -0.2046
  418DECAN   C3 4163   9.025   4.233  13.699 -0.1668 -0.0104  0.9327
  418DECAN   C4 4164   8.872   4.233  13.716 -0.2923 -0.3356 -0.1298
  418DECAN   C5 4165   8.798   4.360  13.671 -0.3905 -0.1517  0.5504
  418DECAN   C6 4166   8.644   4.364  13.685 -0.3611  0.7298  0.7164
  418DECAN   C7 4167   8.579   4.417  13.556  0.6792  0.3672  0.0293
  418DECAN   C8 4168   8.596   4.313  13.443 -1.1924  0.2361 -0.1627
  418DECAN   C9 4169   8.557   4.362  13.303 -0.4907  0.4646 -0.2840
  418DECAN  C10 4170   8.550   4.254  13.193  0.7155 -0.2942  0.3644
  419DECAN   C1 4171   2.756  11.141  10.651 -0.5456  0.4884  0.3852
  419DECAN   C2 4172   2.646  11.229  10.590 -0.0969  0.7117 -0.1143
  419DECAN   C3 4173   2.665  11.230  10.437  0.0338  0.0844 -0.1045
  419DECAN   C4 4174   2.555   0.066  10.365 -0.6300 -0.6515  0.0724
  419DECAN   C5 4175   2.547   0.205  10.431  0.7555 -0.4089 -0.2375
  419DECAN   C6 4176   2.480   0.303  10.332  0.4258  0.1267  0.5036
  419DECAN   C7 4177   2.508   0.453  10.352  0.5434  0.1699  0.0122
  419DECAN   C8 4178   2.405   0.536  10.272 -0.0794 -0.3358  0.2824
  419DECAN   C9 4179   2.280   0.580  10.350 -0.0685  0.4033 -0.1063
  419DECAN  C10 4180   2.174   0.647  10.260 -0.1045  0.0585 -0.3236
  420DECAN   C1 4181   5.456  10.686   4.655  0.1233  0.1256 -0.0982
  420DECAN   C2 4182   5.604  10.648   4.637  0.1707  0.4390 -0.3851
  420DECAN   C3 4183   5.647  10.580   4.505 -0.1188 -0.4815 -0.0150
  420DECAN   C4 4184   5.781  10.507   4.521 -0.3853 -0.8886  0.3826
  420DECAN   C5 4185   5.827  10.424   4.400 -0.1188 -0.4072  0.1535
  420DECAN   C6 4186   5.968  10.365   4.417  0.3033  0.5972  0.2499
  420DECAN   C7 4187   6.003  10.279   4.294  0.2030  0.1577  0.5248
  420DECAN   C8 4188   6.153  10.262   4.261  0.1315 -0.0819  0.3186
  420DECAN   C9 4189   6.170  10.185   4.129 -0.6763  0.3848 -0.0646
  420DECAN  C10 4190   6.083  10.063   4.093 -0.0400 -0.0667 -0.0942
  421DECAN   C1 4191   2.545  10.073  15.031  0.0058  0.0251  0.2881
  421DECAN   C2 4192   2.590   9.941  14.965 -0.1663  0.2872 -0.3505
  421DECAN   C3 4193   2.661   9.843  15.059 -0.0535  0.2374 -0.4876
  421DECAN   C4 4194   2.803   9.869  15.111  0.0405 -0.7343 -0.2297
  421DECAN   C5 4195   2.898   9.828  14.996  0.8140  0.1269  0.0835
  421DECAN   C6 4196   3.043   9.866  15.029  0.6440  0.7297  0.1480
  421DECAN   C7 4197   3.155   9.788  14.957 -0.2623 -0.2437 -0.2358
  421DECAN   C8 4198   3.188   9.828  14.812  0.3821 -0.2784 -0.1027
  421DECAN   C9 4199   3.307   9.750  14.754  0.7000  0.2007 -0.1012
  421DECAN  C10 4200   3.261   9.617  14.691 -0.0799  0.4012  0.0391
  422DECAN   C1 4201   4.300   6.699  11.646 -0.1375  0.1394 -0.3734
  422DECAN   C2 4202   4.448   6.656  11.635 -0.1550  0.0970 -0.4393
  422DECAN   C3 4203   4.452   6.555  11.518  0.0515 -0.1240 -0.2414
  422DECAN   C4 4204   4.578   6.468  11.499  0.3924  0.2058  0.4488
  422DECAN   C5 4205   4.705   6.545  11.460 -0.1590  0.5245 -0.7830
  422DECAN   C6 4206   4.819   6.447  11.426 -0.6218 -0.4121  0.3132
  422DECAN   C7 4207   4.808   6.348  11.309 -0.5883 -0.2082  0.1384
  422DECAN   C8 4208   4.698   6.242  11.325 -0.1611 -0.5716  0.7021
  422DECAN   C9 4209   4.714   6.145  11.206  0.4197  0.1177  0.2114
  422DECAN  C10 4210   4.601   6.040  11.197  0.2882  0.2609  0.1632
  423DECAN   C1 4211   2.668  11.028  10.032 -0.8292 -0.1287 -0.0449
  423DECAN   C2 4212   2.753  11.139   9.966  0.1054 -0.5244  0.4729
  423DECAN   C3 4213   2.678  11.196   9.845 -0.1646 -0.2992  0.7434
  423DECAN   C4 4214   2.555   0.036   9.887  0.0950  0.2582  0.4101
  423DECAN   C5 4215   2.460  11.190   9.968 -0.3652  0.3200 -0.0587
  423DECAN   C6 4216   2.338   0.015  10.031 -0.3418  0.0849  0.2460
  423DECAN   C7 4217   2.224  11.163  10.071 -0.5515 -0.0009 -0.5340
  423DECAN   C8 4218   2.109  11.231  10.148 -0.1611 -0.5912  0.6024
  423DECAN   C9 4219   2.148   0.090  10.255  0.1848 -0.1553  0.0595
  423DECAN  C10 4220   2.034   0.157  10.334  0.1916 -0.2888  0.1833
  424DECAN   C1 4221  10.753  10.267   8.281 -0.0907 -0.1856  0.3460
  424DECAN   C2 4222  10.835  10.210   8.164  0.0799  0.8381 -0.0450
  424DECAN   C3 4223  10.755  10.136   8.056  0.6625  0.1524 -0.0172
  424DECAN   C4 4224  10.731   9.989   8.094  0.0962  0.1797 -0.2503
  424DECAN   C5 4225  10.643   9.918   7.989 -0.0523 -0.4169  0.2682
  424DECAN   C6 4226  10.600   9.774   8.023 -0.3276 -0.2824  0.4936
  424DECAN   C7 4227  10.500   9.722   7.918  0.1287  0.1117 -0.1430
  424DECAN   C8 4228  10.437   9.584   7.943  0.4545 -0.1054 -0.4954
  424DECAN   C9 4229  10.321   9.557   7.846 -0.2438 -0.2405  0.3618
  424DECAN  C10 4230  10.202   9.655   7.858 -0.1734 -0.0991 -0.0594
  425DECAN   C1 4231   9.636   5.057   9.023 -0.2698 -0.2309 -0.4135
  425DECAN   C2 4232   9.492   5.111   9.028 -0.1292  0.1342 -0.2877
  425DECAN   C3 4233   9.439   5.110   9.173 -0.6222  0.4137 -0.4614
  425DECAN   C4 4234   9.536   5.185   9.267 -0.0890 -0.7208 -0.0859
  425DECAN   C5 4235   9.678   5.127   9.271  0.2005  0.0240  0.6873
  425DECAN   C6 4236   9.680   4.998   9.355  0.3521 -0.7853 -0.5298
  425DECAN   C7 4237   9.563   4.901   9.332 -0.2904 -0.2111  0.2312
  425DECAN   C8 4238   9.580   4.780   9.425  0.5242 -0.0935  0.2418
  425DECAN   C9 4239   9.447   4.706   9.447  0.6066 -0.3934 -0.2482
  425DECAN  C10 4240   9.462   4.586   9.543  0.6543  0.2437  0.5591
  426DECAN   C1 4241   3.379   0.684   4.758  0.1184  0.0967 -0.1375
  426DECAN   C2 4242   3.517   0.646   4.703  0.2658  0.5860 -0.1146
  426DECAN   C3 4243   3.589   0.733   4.598 -0.3026  0.7778 -0.3468
  426DECAN   C4 4244   3.731   0.681   4.572 -0.5737 -0.0022 -0.2876
  426DECAN   C5 4245   3.823   0.787   4.508 -0.1460 -0.2343 -0.0644
  426DECAN   C6 4246   3.768   0.827   4.370  0.0923  0.1387 -0.0514
  426DECAN   C7 4247   3.833   0.957   4.318  0.3003 -0.2513 -0.7870
  426DECAN   C8 4248   3.986   0.963   4.327  0.2578 -0.5592  0.3075
  426DECAN   C9 4249   4.050   0.956   4.467 -0.0988 -0.0728  0.4980
  426DECAN  C10 4250   4.196   1.005   4.479 -0.2517  0.4228  0.3764
  427DECAN   C1 4251   7.599  11.106   7.319 -0.5090  0.6141  0.8115
  427DECAN   C2 4252   7.713  11.208   7.335 -0.2132  0.3978  0.1146
  427DECAN   C3 4253   7.858  11.155   7.339 -0.2741  0.2345  0.1535
  427DECAN   C4 4254   7.956   0.026   7.371 -0.1040  0.0718  0.2203
  427DECAN   C5 4255   7.968   0.114   7.245  0.0378 -0.1355  0.0885
  427DECAN   C6 4256   8.075   0.225   7.243  0.0204 -0.1046  0.6831
  427DECAN   C7 4257   8.222   0.182   7.261  0.0064 -0.2685  0.4185
  427DECAN   C8 4258   8.258   0.084   7.148  0.5940  0.6155 -0.1740
  427DECAN   C9 4259   8.395   0.017   7.127 -0.0786 -0.7644 -0.2237
  427DECAN  C10 4260   8.393  11.157   7.014 -0.1196 -0.7356 -0.2499
  428DECAN   C1 4261   5.609   6.187   5.403 -0.2398  0.2781  0.2986
  428DECAN   C2 4262   5.746   6.118   5.405 -0.3917 -0.0570 -0.6090
  428DECAN   C3 4263   5.877   6.198   5.394 -0.2536 -0.1176  0.4768
  428DECAN   C4 4264   6.004   6.118   5.431  0.3016  0.1925 -0.7093
  428DECAN   C5 4265   6.128   6.208   5.446  0.2900  0.1960 -0.6292
  428DECAN   C6 4266   6.264   6.136   5.430 -0.0118 -0.4108 -0.4829
  428DECAN   C7 4267   6.367   6.246   5.460  0.2218 -0.6901 -0.2613
  428DECAN   C8 4268   6.502   6.179   5.490  0.2865 -0.3895  0.1356
  428DECAN   C9 4269   6.616   6.280   5.509  0.1751 -0.0816 -0.7785
  428DECAN  C10 4270   6.582   6.382   5.619  0.2759 -0.3348 -0.5110
  429DECAN   C1 4271   7.883   7.718   9.758  0.1027  0.1262  0.3652
  429DECAN   C2 4272   7.980   7.835   9.730  0.1934 -0.0314  0.0168
  429DECAN   C3 4273   7.939   7.980   9.763  0.6248  0.1107 -0.0748
  429DECAN   C4 4274   8.060   8.075   9.766  0.1749  0.6931 -0.2676
  429DECAN   C5 4275   8.130   8.068   9.629 -0.0044 -0.3557 -0.3084
  429DECAN   C6 4276   8.236   8.174   9.596 -0.3611  0.1624  0.1998
  429DECAN   C7 4277   8.365   8.154   9.677 -0.2187 -0.1110 -0.0941
  429DECAN   C8 4278   8.449   8.283   9.684 -0.4285  0.0288 -0.1713
  429DECAN   C9 4279   8.505   8.317   9.544 -0.0751 -0.1469 -0.0723
  429DECAN  C10 4280   8.575   8.453   9.553 -0.0274 -0.1634 -0.2026
  430DECAN   C1 4281   6.333   4.912  14.297  0.1486 -0.4173 -0.0189
  430DECAN   C2 4282   6.444   4.952  14.197  0.2506 -0.2083  0.1772
  430DECAN   C3 4283   6.400   4.919  14.053  0.0534 -0.4669  0.2959
  430DECAN   C4 4284   6.498   4.983  13.952  0.1436  0.1629  0.7715
  430DECAN   C5 4285   6.491   4.912  13.815  0.6777  0.6474  0.4920
  430DECAN   C6 4286   6.580   4.971  13.704  0.4271  0.2478  0.0765
  430DECAN   C7 4287   6.556   4.905  13.567  0.5327 -0.3153  0.3288
  430DECAN   C8 4288   6.642   4.966  13.456  0.0574  0.0820  0.1750
  430DECAN   C9 4289   6.633   4.885  13.325  0.1853  0.4963 -0.0891
  430DECAN  C10 4290   6.689   4.955  13.199 -0.0652 -0.2204 -0.6048
  431DECAN   C1 4291  10.924   8.684   9.609  0.1004  0.3546 -0.3928
  431DECAN   C2 4292  10.883   8.796   9.706  0.4401  0.3221 -0.2099
  431DECAN   C3 4293  10.916   8.765   9.854 -0.7441 -0.2951 -0.0596
  431DECAN   C4 4294  10.813   8.674   9.923 -0.7632 -0.2480 -0.0271
  431DECAN   C5 4295  10.672   8.734   9.938 -0.4372  0.3334  0.7356
  431DECAN   C6 4296  10.573   8.646  10.017 -0.1575 -0.1613  0.5447
  431DECAN   C7 4297  10.549   8.509   9.951 -0.3243  0.3159 -0.4072
  431DECAN   C8 4298  10.437   8.418  10.004  0.3961 -0.1600  0.3118
  431DECAN   C9 4299  10.431   8.278   9.940 -0.3290  0.1700 -0.3528
  431DECAN  C10 4300  10.307   8.199   9.984 -0.6843  0.4383 -0.8693
  432DECAN   C1 4301   2.127   3.108   9.961 -0.2030  0.6014  0.4970
  432DECAN   C2 4302   2.036   3.109  10.085 -0.5888 -0.7136  0.2399
  432DECAN   C3 4303   2.101   3.136  10.222 -0.7261 -0.1166  0.1908
  432DECAN   C4 4304   1.998   3.159  10.334 -0.4844 -0.1523  0.4202
  432DECAN   C5 4305   2.075   3.177  10.467  0.1661 -0.3442  0.0720
  432DECAN   C6 4306   2.003   3.159  10.602 -0.3183 -0.1520 -0.1586
  432DECAN   C7 4307   2.083   3.188  10.730 -0.1724 -0.2364 -0.2289
  432DECAN   C8 4308   2.201   3.095  10.765 -0.1209 -0.1460 -0.1657
  432DECAN   C9 4309   2.245   3.106  10.912 -0.0833 -0.1171 -0.1784
  432DECAN  C10 4310   2.368   3.028  10.961  0.1210  0.1057 -0.3363
  433DECAN   C1 4311   1.168   0.621  11.411  0.0826  0.8941 -0.1647
  433DECAN   C2 4312   1.167   0.622  11.565 -0.6948  0.1151 -0.1551
  433DECAN   C3 4313   1.246   0.510  11.635 -0.4645  0.0447 -0.5274
  433DECAN   C4 4314   1.187   0.372  11.596 -0.4117 -0.1822  0.1867
  433DECAN   C5 4315   1.262   0.317  11.473 -0.4941  0.2831 -0.0719
  433DECAN   C6 4316   1.221   0.170  11.457 -0.8590  0.3796 -0.0567
  433DECAN   C7 4317   1.286   0.105  11.333 -0.4714  0.2430  0.2171
  433DECAN   C8 4318   1.274   0.203  11.216 -0.2430  0.2779  0.2219
  433DECAN   C9 4319   1.338   0.159  11.083 -0.0746 -0.0250  0.4035
  433DECAN  C10 4320   1.344   0.260  10.967 -0.3888 -0.1870  0.2430
  434DECAN   C1 4321   9.379   4.239   7.492  0.1595  0.5885 -0.0929
  434DECAN   C2 4322   9.515   4.182   7.534 -0.0525  0.1356 -0.0180
  434DECAN   C3 4323   9.638   4.224   7.452  0.2662  0.0566  0.4154
  434DECAN   C4 4324   9.774   4.209   7.523  0.1382  0.4218  0.7424
  434DECAN   C5 4325   9.896   4.250   7.438 -0.0893  0.0303  0.2244
  434DECAN   C6 4326  10.030   4.184   7.475  0.2722  0.4685 -0.2952
  434DECAN   C7 4327  10.149   4.208   7.380  0.3465  0.3465 -0.2325
  434DECAN   C8 4328  10.278   4.147   7.438  0.0288  0.2461  0.3789
  434DECAN   C9 4329  10.400   4.211   7.369 -0.4641 -0.0628 -0.8169
  434DECAN  C10 4330  10.398   4.365   7.368 -0.2923 -0.0519 -0.1735
  435DECAN   C1 4331   5.977   1.126  14.424  0.2671  0.4907 -0.1854
  435DECAN   C2 4332   5.894   1.229  14.344  0.2302  0.3654 -0.3080
  435DECAN   C3 4333   5.822   1.165  14.224  0.1399 -0.1569  0.0184
  435DECAN   C4 4334   5.769   1.274  14.129  0.1495  0.2112  0.4337
  435DECAN   C5 4335   5.672   1.372  14.198  0.4065  0.5060  0.3779
  435DECAN   C6 4336   5.625   1.487  14.107  0.5255  0.2053 -0.0633
  435DECAN   C7 4337   5.526   1.457  13.993 -0.0987  0.4594  0.4064
  435DECAN   C8 4338   5.472   1.574  13.909  0.3128  0.0589 -0.4326
  435DECAN   C9 4339   5.578   1.645  13.823  0.2308  0.1315 -0.4745
  435DECAN  C10 4340   5.543   1.763  13.731 -0.6997  0.2366  0.0045
  436DECAN   C1 4341   4.961   0.584  10.952 -0.4817 -0.4457  0.1181
  436DECAN   C2 4342   5.076   0.678  10.993 -0.8584  0.0242  0.1087
  436DECAN   C3 4343   5.181   0.604  11.078 -0.3223  0.2679 -0.3430
  436DECAN   C4 4344   5.279   0.698  11.150  0.3555 -0.0775 -0.7874
  436DECAN   C5 4345   5.392   0.629  11.227  0.0490  0.1116 -0.1575
  436DECAN   C6 4346   5.496   0.545  11.150  0.1609 -0.1837  0.3068
  436DECAN   C7 4347   5.607   0.501  11.247  0.1797 -1.0241 -0.0826
  436DECAN   C8 4348   5.675   0.625  11.308 -0.5049 -0.6086 -0.1598
  436DECAN   C9 4349   5.728   0.731  11.209 -0.3509 -0.4314  0.1094
  436DECAN  C10 4350   5.843   0.687  11.117 -0.3006  0.1058 -0.0839
  437DECAN   C1 4351   8.610   0.278   6.893  0.3725  0.2665 -0.2838
  437DECAN   C2 4352   8.558   0.275   6.748 -0.2724  0.4769 -0.0618
  437DECAN   C3 4353   8.558   0.139   6.676 -0.1388  0.7004 -0.4892
  437DECAN   C4 4354   8.517   0.145   6.528  0.2463 -0.3384 -0.6513
  437DECAN   C5 4355   8.545   0.013   6.454  0.2656 -0.7017 -0.0053
  437DECAN   C6 4356   8.498   0.012   6.307  0.4513  0.2899 -0.0854
  437DECAN   C7 4357   8.536  11.139   6.215 -0.1278 -0.1777  0.2541
  437DECAN   C8 4358   8.688  11.120   6.194 -0.2071 -0.2024 -0.3209
  437DECAN   C9 4359   8.727  11.012   6.091 -0.3201 -0.4322 -0.1221
  437DECAN  C10 4360   8.878  11.002   6.060 -0.2539  0.1960 -0.0181
  438DECAN   C1 4361   7.247   3.726  11.502  0.1252  0.3410 -0.1652
  438DECAN   C2 4362   7.139   3.808  11.429  0.0651  0.3463 -0.0696
  438DECAN   C3 4363   6.993   3.786  11.471  0.1164 -0.3907 -0.2751
  438DECAN   C4 4364   6.887   3.851  11.380  0.0321 -0.0096  0.0895
  438DECAN   C5 4365   6.931   3.998  11.379 -0.3315  0.0989 -0.3220
  438DECAN   C6 4366   7.083   4.008  11.405 -0.3973 -0.2330  0.2025
  438DECAN   C7 4367   7.154   4.144  11.416  0.0789 -0.4954  0.3852
  438DECAN   C8 4368   7.109   4.245  11.524 -0.7669  0.1167 -0.5215
  438DECAN   C9 4369   7.089   4.392  11.486  0.4546  0.5243  0.3516
  438DECAN  C10 4370   7.042   4.482  11.602 -0.0672  0.2087  0.3865
  439DECAN   C1 4371   5.588   1.970  12.729  0.5919 -0.3425  0.2206
  439DECAN   C2 4372   5.590   1.963  12.883  0.4241  0.4735  0.2635
  439DECAN   C3 4373   5.479   2.054  12.940  0.1390  0.0343  0.4215
  439DECAN   C4 4374   5.486   2.057  13.093 -0.7753  0.4028  0.4605
  439DECAN   C5 4375   5.457   1.916  13.149 -0.3317 -0.1471 -0.6617
  439DECAN   C6 4376   5.499   1.898  13.296 -0.0802  0.0164 -0.7124
  439DECAN   C7 4377   5.456   1.756  13.340  0.0442  0.0230 -0.5676
  439DECAN   C8 4378   5.520   1.644  13.256  0.1946 -0.1113 -0.2763
  439DECAN   C9 4379   5.457   1.623  13.117  0.2308  0.2348 -0.3468
  439DECAN  C10 4380   5.481   1.481  13.063 -0.1386 -0.0386  0.1962
  440DECAN   C1 4381   6.348   6.680  10.204 -0.2158  0.1739 -0.2848
  440DECAN   C2 4382   6.217   6.701  10.125  0.1621  0.9129 -0.7268
  440DECAN   C3 4383   6.138   6.574  10.087  0.5244  0.4452  0.0383
  440DECAN   C4 4384   6.212   6.485   9.986 -0.3221 -0.4607  0.2111
  440DECAN   C5 4385   6.140   6.349   9.972  0.1800 -0.7202  0.1466
  440DECAN   C6 4386   5.989   6.372   9.953  0.3699  0.1342 -0.3761
  440DECAN   C7 4387   5.889   6.256   9.962  0.0162  0.4793  0.2710
  440DECAN   C8 4388   5.889   6.166   9.836  1.0233 -0.1170  0.6849
  440DECAN   C9 4389   5.892   6.013   9.854 -0.1591 -0.2467 -0.1241
  440DECAN  C10 4390   5.948   5.952   9.724 -0.2990 -0.8404  0.0902
  441DECAN   C1 4391   8.126   2.030  13.674  1.0764  0.7820 -0.0395
  441DECAN   C2 4392   8.267   1.967  13.663  0.6563 -0.2708  0.5138
  441DECAN   C3 4393   8.253   1.819  13.622  0.2398 -0.0422 -0.1764
  441DECAN   C4 4394   8.391   1.751  13.618  0.1703 -0.1660 -0.5673
  441DECAN   C5 4395   8.481   1.756  13.743 -0.0441  0.1050 -0.4238
  441DECAN   C6 4396   8.619   1.696  13.711 -0.0351 -0.1490  0.0825
  441DECAN   C7 4397   8.701   1.677  13.840  0.3553  0.1532 -0.1177
  441DECAN   C8 4398   8.852   1.647  13.832  0.2272 -0.5138 -0.1055
  441DECAN   C9 4399   8.885   1.522  13.747 -0.0789 -0.6334 -0.0515
  441DECAN  C10 4400   9.037   1.498  13.743  0.1522  0.6442  0.5294
  442DECAN   C1 4401   8.586   2.537   9.892 -0.7680  0.2263  0.3174
  442DECAN   C2 4402   8.596   2.650   9.997 -0.2597 -0.4534  1.0079
  442DECAN   C3 4403   8.732   2.661  10.069  0.0955 -0.2348  0.3180
  442DECAN   C4 4404   8.721   2.746  10.198  0.1963  0.1548  0.0718
  442DECAN   C5 4405   8.852   2.762  10.278  0.3955 -0.4538 -0.1198
  442DECAN   C6 4406   8.961   2.821  10.186 -0.0253  0.5326 -0.0058
  442DECAN   C7 4407   9.081   2.870  10.269  0.0133  0.3719  0.0334
  442DECAN   C8 4408   9.185   2.955  10.193  0.3617 -0.4576 -0.4370
  442DECAN   C9 4409   9.310   2.984  10.277 -0.1017 -0.0058  0.1087
  442DECAN  C10 4410   9.297   3.084  10.394 -0.1284  0.1283 -0.0091
  443DECAN   C1 4411   7.947   2.462   7.824 -0.0947 -0.8171  0.1076
  443DECAN   C2 4412   7.880   2.390   7.706 -0.1011 -0.3786 -0.1608
  443DECAN   C3 4413   7.780   2.284   7.757 -0.4495 -0.0870 -0.2424
  443DECAN   C4 4414   7.674   2.337   7.855  0.1501  0.1382  0.2888
  443DECAN   C5 4415   7.564   2.236   7.896  0.1393  0.0460  0.0325
  443DECAN   C6 4416   7.464   2.318   7.979 -0.0814 -0.2010  0.0090
  443DECAN   C7 4417   7.518   2.387   8.105 -0.2938 -0.6376  0.3433
  443DECAN   C8 4418   7.406   2.438   8.197 -0.1810 -0.1641  0.2237
  443DECAN   C9 4419   7.438   2.540   8.308 -0.4136 -0.1220  0.2546
  443DECAN  C10 4420   7.484   2.478   8.441 -0.1312 -0.3533  0.0531
  444DECAN   C1 4421   1.801   9.773  10.965  0.2736  0.2875 -0.2765
  444DECAN   C2 4422   1.822   9.859  11.091  0.1396 -0.1122  0.0216
  444DECAN   C3 4423   1.704   9.950  11.129  0.1419 -0.1380  0.0881
  444DECAN   C4 4424   1.735  10.023  11.262  0.0114  0.2685 -0.1028
  444DECAN   C5 4425   1.765   9.929  11.380 -0.0558  0.2180 -0.1249
  444DECAN   C6 4426   1.904   9.864  11.368 -0.3414 -0.3552 -0.3628
  444DECAN   C7 4427   1.941   9.768  11.483 -0.0175  0.1956  0.0005
  444DECAN   C8 4428   2.070   9.688  11.457 -0.2638 -0.4714  0.7876
  444DECAN   C9 4429   2.203   9.766  11.451 -0.3450 -0.3925 -0.2170
  444DECAN  C10 4430   2.246   9.828  11.585 -0.5635 -0.2498 -0.2128
  445DECAN   C1 4431   4.776  10.638  10.886 -0.6939  0.9001  0.9630
  445DECAN   C2 4432   4.921  10.643  10.938 -0.0690  0.4049 -0.6466
  445DECAN   C3 4433   4.968  10.783  10.981 -0.4994  0.4103 -0.1753
  445DECAN   C4 4434   5.103  10.785  11.055 -0.6270  0.3600  0.0617
  445DECAN   C5 4435   5.142  10.928  11.094  0.1763  0.1556  0.0502
  445DECAN   C6 4436   5.280  10.958  11.154  0.0714 -0.3056  0.5295
  445DECAN   C7 4437   5.402  10.898  11.082  0.0708  0.3557 -0.0359
  445DECAN   C8 4438   5.544  10.908  11.143 -0.0361  0.1005  0.2636
  445DECAN   C9 4439   5.656  10.839  11.064 -0.2163  0.2212 -0.1036
  445DECAN  C10 4440   5.806  10.847  11.100 -0.2839  0.1759  0.1941
  446DECAN   C1 4441   2.736   7.344   4.745 -0.2763  0.2043  0.3851
  446DECAN   C2 4442   2.675   7.234   4.833 -0.4627  0.3290  0.4108
  446DECAN   C3 4443   2.557   7.168   4.759  0.0854 -0.2909  0.0846
  446DECAN   C4 4444   2.452   7.095   4.845 -0.1013 -0.1835 -0.0526
  446DECAN   C5 4445   2.326   7.052   4.767  0.0499 -0.1872 -0.2982
  446DECAN   C6 4446   2.358   6.933   4.675  0.5406 -0.2490 -0.0536
  446DECAN   C7 4447   2.230   6.875   4.610  0.1618 -0.0796  0.5336
  446DECAN   C8 4448   2.231   6.727   4.568  0.4549  0.0422  0.1017
  446DECAN   C9 4449   2.206   6.636   4.689  0.8586  0.2215  0.3204
  446DECAN  C10 4450   2.248   6.492   4.655  0.1115  0.1141 -0.1619
  447DECAN   C1 4451   9.512   8.005  12.537 -0.2940  0.0364 -0.3562
  447DECAN   C2 4452   9.462   8.004  12.683 -0.0954 -0.4213 -0.2902
  447DECAN   C3 4453   9.539   8.106  12.768 -0.1259 -0.1725 -0.5593
  447DECAN   C4 4454   9.516   8.256  12.740  0.1189  0.0346  0.3113
  447DECAN   C5 4455   9.582   8.342  12.850 -0.2591  0.0478  0.5297
  447DECAN   C6 4456   9.592   8.490  12.808  0.1739 -0.1700 -0.1526
  447DECAN   C7 4457   9.673   8.511  12.679  0.5602  0.1471  0.1390
  447DECAN   C8 4458   9.682   8.656  12.629  0.1541  0.0902 -0.1067
  447DECAN   C9 4459   9.756   8.671  12.494  0.3332  0.0399 -0.0134
  447DECAN  C10 4460   9.891   8.598  12.504  0.3911  0.2259  0.6271
  448DECAN   C1 4461   8.000   3.079  14.628  0.2180  0.0573 -0.8600
  448DECAN   C2 4462   7.898   3.180  14.571 -0.6232  0.1013  0.6527
  448DECAN   C3 4463   7.936   3.324  14.607 -0.0866  0.1631 -0.1328
  448DECAN   C4 4464   7.826   3.424  14.568 -0.2914 -0.0474 -0.0965
  448DECAN   C5 4465   7.877   3.566  14.600  0.1458 -0.2252  0.0018
  448DECAN   C6 4466   7.772   3.675  14.571  0.4365  0.0612  0.0166
  448DECAN   C7 4467   7.796   3.818  14.621  0.1694  0.2020 -0.2567
  448DECAN   C8 4468   7.703   3.925  14.559  0.1752  0.2945 -0.1093
  448DECAN   C9 4469   7.680   4.055  14.637  0.1261  0.3178 -0.1623
  448DECAN  C10 4470   7.612   4.155  14.542  0.3114 -0.2044 -0.8476
  449DECAN   C1 4471   9.431   4.540   7.059  0.1576 -1.0484 -0.3441
  449DECAN   C2 4472   9.331   4.476   7.158 -0.0769  0.0436  0.1337
  449DECAN   C3 4473   9.305   4.553   7.289  0.3440 -0.3097  0.4278
  449DECAN   C4 4474   9.177   4.507   7.361 -0.5487  0.8064 -0.4054
  449DECAN   C5 4475   9.137   4.576   7.493 -0.2008  0.2219  0.0077
  449DECAN   C6 4476   9.071   4.480   7.594 -0.1971 -0.3033 -0.4857
  449DECAN   C7 4477   8.990   4.554   7.702  0.7553  0.5517 -0.3490
  449DECAN   C8 4478   9.071   4.648   7.794  0.2822  0.2457  0.3825
  449DECAN   C9 4479   9.195   4.576   7.850  0.5207 -0.0924 -0.5648
  449DECAN  C10 4480   9.211   4.641   7.989 -0.0851  0.2227 -0.6383
  450DECAN   C1 4481   8.557   5.109   7.386 -0.3781 -0.2266  0.7348
  450DECAN   C2 4482   8.483   5.242   7.407 -0.2556 -0.0760  0.2185
  450DECAN   C3 4483   8.550   5.336   7.509 -0.1625 -0.2540  0.3228
  450DECAN   C4 4484   8.573   5.270   7.646  0.7719 -0.6530 -0.0154
  450DECAN   C5 4485   8.614   5.372   7.754 -0.3380 -0.3223  0.1177
  450DECAN   C6 4486   8.753   5.437   7.737 -0.5270  0.1225  0.2565
  450DECAN   C7 4487   8.800   5.531   7.849 -0.3574 -0.3092  0.5509
  450DECAN   C8 4488   8.949   5.563   7.830 -0.4288 -0.3507 -0.1152
  450DECAN   C9 4489   9.013   5.654   7.937 -0.4456  0.2513 -0.6146
  450DECAN  C10 4490   8.976   5.802   7.920  0.5229  0.5257 -0.3844
  451DECAN   C1 4491   2.163  10.761   5.372  0.0749 -0.0104  0.2559
  451DECAN   C2 4492   2.280  10.666   5.338  0.4085  0.4956 -0.0326
  451DECAN   C3 4493   2.330  10.688   5.194  0.5518  0.7053  0.0489
  451DECAN   C4 4494   2.462  10.615   5.162  0.3135  0.3274 -0.0766
  451DECAN   C5 4495   2.522  10.631   5.021  0.8619  0.4400  0.1702
  451DECAN   C6 4496   2.646  10.539   5.018  0.2088 -0.4407  0.0226
  451DECAN   C7 4497   2.715  10.535   4.880  0.0696  0.7551 -0.0895
  451DECAN   C8 4498   2.785  10.671   4.858 -0.1218  0.9200  0.2902
  451DECAN   C9 4499   2.820  10.678   4.708 -0.3914  0.3878  0.1987
  451DECAN  C10 4500   2.845  10.816   4.645  0.4118 -0.1099 -0.6026
  452DECAN   C1 4501   3.960   8.559  14.894  1.2033 -1.2936 -0.2337
  452DECAN   C2 4502   4.040   8.666  14.971  0.2251 -0.2916 -0.5805
  452DECAN   C3 4503   4.126   8.609  15.085  0.6817 -0.0731 -0.8148
  452DECAN   C4 4504   4.247   8.697  15.123  0.4212 -0.0603  0.0218
  452DECAN   C5 4505   4.365   8.702  15.023  0.3327  0.3043 -0.0689
  452DECAN   C6 4506   4.324   8.743  14.880  0.1687  0.0322 -0.0998
  452DECAN   C7 4507   4.435   8.734  14.774  0.2321 -0.3448 -0.0077
  452DECAN   C8 4508   4.533   8.854  14.782 -0.0350 -0.0725 -0.7105
  452DECAN   C9 4509   4.624   8.862  14.658  0.5378 -0.5737 -0.3280
  452DECAN  C10 4510   4.724   8.978  14.657  0.1688 -0.2551 -0.5201
  453DECAN   C1 4511   2.109  10.298  11.456 -0.5414 -0.3463 -0.0191
  453DECAN   C2 4512   2.077  10.335  11.602 -0.2470 -0.2469  0.0217
  453DECAN   C3 4513   2.174  10.267  11.700  0.1824  0.3550  0.0221
  453DECAN   C4 4514   2.324  10.296  11.678  0.3180 -0.2349  0.1336
  453DECAN   C5 4515   2.406  10.239  11.794  0.1671 -0.5208  0.1008
  453DECAN   C6 4516   2.555  10.276  11.794 -0.0150  0.2304  0.2705
  453DECAN   C7 4517   2.596  10.423  11.819 -0.0163  0.3764 -0.5787
  453DECAN   C8 4518   2.740  10.436  11.870 -0.0885 -0.5208 -0.1232
  453DECAN   C9 4519   2.803  10.576  11.889 -0.2314 -0.4385 -0.2536
  453DECAN  C10 4520   2.928  10.595  11.977 -0.4320  0.0546 -0.0754
  454DECAN   C1 4521   6.695   5.782   7.733  0.0926 -0.1172 -0.4156
  454DECAN   C2 4522   6.733   5.641   7.782 -0.0408  0.2811  0.8931
  454DECAN   C3 4523   6.886   5.661   7.785  0.0021  0.3338 -0.6965
  454DECAN   C4 4524   6.975   5.537   7.805  0.1972  0.5002 -0.5355
  454DECAN   C5 4525   7.123   5.554   7.770  0.3537  0.0211 -0.1176
  454DECAN   C6 4526   7.200   5.422   7.789  0.2170  0.0573  0.7085
  454DECAN   C7 4527   7.336   5.421   7.716 -0.0585  0.1929  0.1900
  454DECAN   C8 4528   7.409   5.286   7.701  0.1338  0.3498 -0.3075
  454DECAN   C9 4529   7.551   5.308   7.647  0.6660 -0.1149  0.8669
  454DECAN  C10 4530   7.623   5.182   7.595 -0.3641 -0.1868 -0.4538
  455DECAN   C1 4531   8.307   6.541   4.757  0.4859 -0.0212  0.7008
  455DECAN   C2 4532   8.264   6.406   4.817  0.7352 -0.2157  0.4454
  455DECAN   C3 4533   8.258   6.296   4.709  0.7361  0.3966 -0.1933
  455DECAN   C4 4534   8.208   6.162   4.768  0.2694  0.3633 -0.6584
  455DECAN   C5 4535   8.183   6.063   4.653  0.0635  0.0328 -0.3318
  455DECAN   C6 4536   8.152   5.924   4.710 -0.0719  0.3924  0.4860
  455DECAN   C7 4537   8.133   5.818   4.600  0.6757  0.4182  0.3267
  455DECAN   C8 4538   8.138   5.674   4.654 -0.0441  0.0221 -0.6313
  455DECAN   C9 4539   8.237   5.578   4.586  0.1498 -0.2437  0.0151
  455DECAN  C10 4540   8.383   5.628   4.591  0.0528 -0.0110  0.6272
  456DECAN   C1 4541   1.210   6.240  11.582  0.3921  0.4736 -0.5635
  456DECAN   C2 4542   1.354   6.187  11.571  0.2608  0.0334 -0.1657
  456DECAN   C3 4543   1.406   6.122  11.701 -0.8358 -0.3261  0.1068
  456DECAN   C4 4544   1.454   6.224  11.806 -0.8937 -0.0562 -0.1274
  456DECAN   C5 4545   1.368   6.351  11.817 -0.2918  0.3360  0.1263
  456DECAN   C6 4546   1.382   6.408  11.960  0.4956  0.2228  0.0977
  456DECAN   C7 4547   1.525   6.461  11.979  0.3989  0.8563 -0.8485
  456DECAN   C8 4548   1.542   6.515  12.122  0.1156 -0.2119 -0.3985
  456DECAN   C9 4549   1.682   6.580  12.127  0.1000 -0.1793 -0.3834
  456DECAN  C10 4550   1.796   6.490  12.077  0.3858 -0.0304 -0.0062
  457DECAN   C1 4551   7.233   3.019  11.993 -0.2561 -0.2455 -0.4732
  457DECAN   C2 4552   7.161   2.981  11.862 -0.3788  0.1476 -0.5226
  457DECAN   C3 4553   7.186   2.834  11.823  0.5113  0.2388 -0.3201
  457DECAN   C4 4554   7.319   2.785  11.883  0.2842  0.2763  0.2176
  457DECAN   C5 4555   7.372   2.651  11.829  0.1962  0.3233  0.0132
  457DECAN   C6 4556   7.484   2.594  11.917 -0.3458 -0.1983  0.3789
  457DECAN   C7 4557   7.535   2.455  11.874 -0.1910  0.0854 -0.3709
  457DECAN   C8 4558   7.655   2.405  11.956 -0.1176  0.1772 -0.4205
  457DECAN   C9 4559   7.781   2.489  11.932  0.3272 -0.1980  0.5247
  457DECAN  C10 4560   7.835   2.494  11.787 -0.0577 -0.1052  0.3823
  458DECAN   C1 4561   2.457   1.202   9.741 -0.7852 -0.0231 -0.5068
  458DECAN   C2 4562   2.609   1.197   9.714 -0.5180  0.7215  0.7521
  458DECAN   C3 4563   2.686   1.318   9.769  0.1852  0.2625  0.7816
  458DECAN   C4 4564   2.818   1.331   9.689 -0.4253  0.6493 -0.1751
  458DECAN   C5 4565   2.926   1.419   9.756  0.4050 -0.3619 -0.1741
  458DECAN   C6 4566   2.952   1.397   9.906  0.0528  0.1820 -0.0293
  458DECAN   C7 4567   3.083   1.454   9.963  0.0440  0.0036  0.1715
  458DECAN   C8 4568   3.102   1.414  10.110  0.2731 -0.4086  0.0310
  458DECAN   C9 4569   3.154   1.272  10.138 -0.4576 -0.5940  0.4741
  458DECAN  C10 4570   3.093   1.148  10.071  0.0784 -0.4286 -0.3333
  459DECAN   C1 4571   9.862   8.031   9.418 -0.5055 -0.1986  0.0974
  459DECAN   C2 4572   9.777   8.157   9.392  0.3881  0.3141 -0.4035
  459DECAN   C3 4573   9.798   8.225   9.255 -0.3096  0.0731 -0.6376
  459DECAN   C4 4574   9.706   8.344   9.223 -0.7776 -0.1368 -0.0862
  459DECAN   C5 4575   9.732   8.421   9.093  0.1984  0.4960  0.4738
  459DECAN   C6 4576   9.610   8.462   9.009  0.1176 -0.4760  0.0931
  459DECAN   C7 4577   9.538   8.335   8.963  0.3312 -0.5289 -0.0987
  459DECAN   C8 4578   9.401   8.369   8.900 -0.0298 -0.1796  0.8692
  459DECAN   C9 4579   9.300   8.418   9.006 -0.3620  0.2127  0.3763
  459DECAN  C10 4580   9.334   8.547   9.084  0.2353  0.6453 -0.5785
  460DECAN   C1 4581   4.881   2.259   5.213 -0.1778 -0.0522  0.3591
  460DECAN   C2 4582   4.790   2.337   5.116  0.7900  0.3945 -0.2004
  460DECAN   C3 4583   4.819   2.340   4.964 -0.0198  0.0079 -0.3667
  460DECAN   C4 4584   4.716   2.417   4.879 -0.1381  0.2120 -0.0424
  460DECAN   C5 4585   4.570   2.369   4.867 -0.1598  0.3080 -0.1651
  460DECAN   C6 4586   4.473   2.467   4.799 -1.1535 -0.3629  0.2625
  460DECAN   C7 4587   4.333   2.412   4.768 -0.9233 -0.5495 -0.4847
  460DECAN   C8 4588   4.245   2.521   4.703 -0.5805 -0.0090 -0.0527
  460DECAN   C9 4589   4.223   2.631   4.808 -0.3758  0.1811 -0.2074
  460DECAN  C10 4590   4.138   2.752   4.762 -0.2587  0.1744 -0.4450
  461DECAN   C1 4591   8.520   4.782   7.672  0.4864  0.5401  0.1865
  461DECAN   C2 4592   8.508   4.679   7.785 -0.3113  0.0768 -0.3107
  461DECAN   C3 4593   8.389   4.586   7.758  0.0703 -0.5352  0.0676
  461DECAN   C4 4594   8.381   4.482   7.872  0.2544 -0.1418  0.4395
  461DECAN   C5 4595   8.331   4.536   8.007  0.1369  0.4035  0.1854
  461DECAN   C6 4596   8.335   4.434   8.122  0.2013  0.2755  0.0710
  461DECAN   C7 4597   8.275   4.492   8.252 -0.1201 -0.2083  0.1427
  461DECAN   C8 4598   8.349   4.437   8.375 -0.3606 -0.7756  0.0387
  461DECAN   C9 4599   8.369   4.285   8.361 -0.3082 -0.7830  0.1926
  461DECAN  C10 4600   8.421   4.225   8.229  0.3112 -0.6536  0.3746
  462DECAN   C1 4601   8.191   1.070   6.802 -0.2764  0.1840 -0.5556
  462DECAN   C2 4602   8.051   1.128   6.772 -0.5300 -0.1404 -0.0202
  462DECAN   C3 4603   7.948   1.040   6.699 -0.4350  0.2011 -0.5736
  462DECAN   C4 4604   7.798   1.070   6.718 -0.3901  0.0613  0.0320
  462DECAN   C5 4605   7.752   1.128   6.853  0.6735 -0.4024  0.6030
  462DECAN   C6 4606   7.600   1.149   6.866  0.6059 -0.0307 -0.6224
  462DECAN   C7 4607   7.539   1.255   6.772  0.0434  0.3858  0.1958
  462DECAN   C8 4608   7.389   1.275   6.802 -0.0443  0.0267  0.0119
  462DECAN   C9 4609   7.359   1.334   6.941 -0.1039  0.1774 -0.0657
  462DECAN  C10 4610   7.214   1.386   6.951 -0.1695  0.0338 -0.2739
  463DECAN   C1 4611   6.806   2.846  11.871  0.0280  0.3557 -0.2438
  463DECAN   C2 4612   6.717   2.958  11.812 -0.5048 -0.2290 -0.5629
  463DECAN   C3 4613   6.792   3.040  11.706  0.0442  0.0158  0.0081
  463DECAN   C4 4614   6.793   2.983  11.563  0.0284  0.2622 -0.0914
  463DECAN   C5 4615   6.651   2.967  11.505  0.0818  0.2519 -0.2196
  463DECAN   C6 4616   6.650   2.923  11.357  0.1373  0.8085 -0.3870
  463DECAN   C7 4617   6.506   2.911  11.303  0.1090 -0.6926 -0.0137
  463DECAN   C8 4618   6.511   2.855  11.160 -0.3182 -0.0029 -0.3036
  463DECAN   C9 4619   6.369   2.870  11.101 -0.4691 -0.2749 -0.0143
  463DECAN  C10 4620   6.365   2.831  10.952  0.2150 -0.0152 -0.1040
  464DECAN   C1 4621   3.744   3.770   6.271 -0.5601 -0.1967  0.7097
  464DECAN   C2 4622   3.702   3.632   6.326 -0.3005 -0.4639  0.2422
  464DECAN   C3 4623   3.696   3.519   6.222 -0.6164 -0.5718  0.3764
  464DECAN   C4 4624   3.620   3.556   6.094 -0.0722 -0.1675  0.1678
  464DECAN   C5 4625   3.593   3.432   6.007  0.2570 -0.1723  0.0712
  464DECAN   C6 4626   3.706   3.363   5.927 -0.0221 -0.3721 -0.1543
  464DECAN   C7 4627   3.670   3.223   5.874 -0.0074 -0.6093  0.4569
  464DECAN   C8 4628   3.763   3.162   5.768 -0.2873  1.0426 -0.7678
  464DECAN   C9 4629   3.912   3.169   5.805 -0.4692  0.3410  0.1134
  464DECAN  C10 4630   4.017   3.111   5.708 -0.4823  0.6262 -0.0712
  465DECAN   C1 4631   6.375   0.153   4.852 -0.1246 -0.5636 -0.6309
  465DECAN   C2 4632   6.429   0.296   4.871  0.0399 -0.7301  0.2071
  465DECAN   C3 4633   6.347   0.401   4.949  0.0972 -0.5408  0.0146
  465DECAN   C4 4634   6.211   0.437   4.886  0.2819 -0.1720 -0.1768
  465DECAN   C5 4635   6.124   0.512   4.988  0.1143 -0.3411 -0.1956
  465DECAN   C6 4636   6.177   0.655   5.011  0.0267 -0.3396 -0.0001
  465DECAN   C7 4637   6.084   0.752   5.087  0.5732  0.0239  0.2140
  465DECAN   C8 4638   6.051   0.714   5.232 -0.3344 -0.2190 -0.0517
  465DECAN   C9 4639   5.969   0.825   5.301  0.0133  0.0277 -0.0357
  465DECAN  C10 4640   5.823   0.848   5.257  0.0436  0.6285  0.1621
  466DECAN   C1 4641   5.492   4.852   3.707 -0.1036  0.4894 -0.2699
  466DECAN   C2 4642   5.553   4.835   3.847 -0.4253 -0.6115 -0.2520
  466DECAN   C3 4643   5.706   4.823   3.832 -0.3868  0.0575 -0.3974
  466DECAN   C4 4644   5.779   4.820   3.968  0.0188 -0.1065 -0.6151
  466DECAN   C5 4645   5.932   4.821   3.953  0.1010 -0.6191  0.1344
  466DECAN   C6 4646   6.008   4.853   4.084 -0.3454 -0.0226  0.2565
  466DECAN   C7 4647   6.154   4.870   4.039 -0.5170  0.5251 -0.1018
  466DECAN   C8 4648   6.270   4.856   4.140  0.1132  0.8337 -0.7696
  466DECAN   C9 4649   6.296   4.972   4.237  0.3315  0.2971 -0.1841
  466DECAN  C10 4650   6.422   4.959   4.325  0.0942 -0.6471  0.0250
  467DECAN   C1 4651   8.750   6.520  14.870  0.3102  0.3752  0.0263
  467DECAN   C2 4652   8.622   6.463  14.807  0.4377 -0.1162  0.2095
  467DECAN   C3 4653   8.520   6.425  14.916 -0.2766  0.4470 -0.2471
  467DECAN   C4 4654   8.374   6.388  14.888 -0.2613  0.0110  0.2230
  467DECAN   C5 4655   8.310   6.496  14.799  0.1182  0.0279 -0.0299
  467DECAN   C6 4656   8.197   6.578  14.865 -0.4197 -0.3997 -0.4039
  467DECAN   C7 4657   8.059   6.511  14.855 -0.5571 -0.1201 -0.3909
  467DECAN   C8 4658   7.943   6.599  14.905 -0.0721  0.0919  0.3785
  467DECAN   C9 4659   7.962   6.646  15.051  0.3961  0.2199  0.2784
  467DECAN  C10 4660   8.069   6.755  15.070  0.7939 -0.1884  0.4091
  468DECAN   C1 4661   9.052   9.758   8.508 -0.5949 -0.3997 -0.0449
  468DECAN   C2 4662   9.068   9.843   8.635 -0.4388 -0.3503 -0.0980
  468DECAN   C3 4663   9.138   9.975   8.600  0.5064 -0.7772  0.1341
  468DECAN   C4 4664   9.160  10.082   8.709  0.0537 -0.2985 -0.2351
  468DECAN   C5 4665   9.044  10.181   8.728  0.3483 -0.0161  0.0993
  468DECAN   C6 4666   9.082  10.292   8.828 -0.4639 -0.1765  0.5923
  468DECAN   C7 4667   9.112  10.226   8.963  0.0457  0.2511  0.6920
  468DECAN   C8 4668   9.176  10.330   9.057  0.8358  0.4027 -0.0023
  468DECAN   C9 4669   9.226  10.267   9.189  0.4994 -0.2450 -0.1784
  468DECAN  C10 4670   9.326  10.352   9.270  0.0788 -0.0092  0.1014
  469DECAN   C1 4671  10.249   5.704   7.953 -0.1741 -0.0629  0.1819
  469DECAN   C2 4672  10.340   5.608   7.875  0.0241  0.3605 -0.1122
  469DECAN   C3 4673  10.368   5.657   7.732  0.4413  0.6456  0.0633
  469DECAN   C4 4674  10.482   5.576   7.667  0.3542  0.0543  0.6427
  469DECAN   C5 4675  10.522   5.642   7.534  0.4412  0.0427  0.6623
  469DECAN   C6 4676  10.560   5.791   7.544 -0.1380  0.2589 -0.2299
  469DECAN   C7 4677  10.653   5.836   7.429  0.0711  0.4502  0.0145
  469DECAN   C8 4678  10.626   5.782   7.288 -0.2693 -0.6542  0.4919
  469DECAN   C9 4679  10.483   5.780   7.231 -0.1827 -1.0890  0.2857
  469DECAN  C10 4680  10.458   5.742   7.083  0.7558 -0.5370 -0.0214
  470DECAN   C1 4681   6.015   9.926   4.480  0.1055 -0.5223 -0.0699
  470DECAN   C2 4682   6.002   9.857   4.618  0.3553 -0.3856  0.0230
  470DECAN   C3 4683   6.140   9.808   4.665  0.4196 -0.1870  0.0376
  470DECAN   C4 4684   6.128   9.715   4.787 -0.7059 -0.3111 -0.1591
  470DECAN   C5 4685   6.119   9.787   4.922 -0.5409  0.0325 -0.3306
  470DECAN   C6 4686   6.111   9.698   5.048 -0.2262  0.3815 -0.0609
  470DECAN   C7 4687   6.020   9.576   5.023  0.0507  0.2234 -0.3138
  470DECAN   C8 4688   6.000   9.479   5.141  0.0386  0.1838 -0.3489
  470DECAN   C9 4689   5.924   9.533   5.263  0.6573 -0.1322  0.1829
  470DECAN  C10 4690   5.923   9.447   5.390 -0.1173 -0.2761  0.0805
  471DECAN   C1 4691   9.116  10.783   6.308 -0.6819  0.5994 -0.0234
  471DECAN   C2 4692   9.166  10.884   6.413  0.0300  0.3166 -0.0870
  471DECAN   C3 4693   9.234  11.000   6.338  0.0635  0.3841  0.0449
  471DECAN   C4 4694   9.310  11.100   6.426  0.4640 -0.0761  0.2284
  471DECAN   C5 4695   9.340  11.229   6.347 -0.9297  0.0895 -0.0549
  471DECAN   C6 4696   9.403  11.216   6.207 -0.1095  0.1851  0.3017
  471DECAN   C7 4697   9.446   0.106   6.144 -0.4652  0.3183  0.3378
  471DECAN   C8 4698   9.511   0.097   6.004 -0.0313 -1.0257  0.6091
  471DECAN   C9 4699   9.646   0.024   6.013  0.3701 -0.4522 -0.5390
  471DECAN  C10 4700   9.624  11.120   6.049 -0.2213 -0.2762 -0.1663
  472DECAN   C1 4701   9.752   4.909   9.817  0.3235 -0.2529 -0.7292
  472DECAN   C2 4702   9.856   4.889   9.705  0.4604 -0.1207 -0.6249
  472DECAN   C3 4703   9.926   5.019   9.660  0.4012  0.0250 -0.2950
  472DECAN   C4 4704   9.996   4.999   9.524 -0.2228 -0.1615 -0.5873
  472DECAN   C5 4705  10.122   5.085   9.506 -0.2272 -0.0179  0.0437
  472DECAN   C6 4706  10.193   5.101   9.642  0.1740  0.6110 -0.2414
  472DECAN   C7 4707  10.328   5.173   9.620  0.2299  0.2988 -0.9380
  472DECAN   C8 4708  10.311   5.325   9.609 -0.1935  0.3064 -0.2200
  472DECAN   C9 4709  10.348   5.407   9.734  0.5764 -0.3702  0.0023
  472DECAN  C10 4710  10.363   5.555   9.694 -0.0244 -0.3022  0.0103
  473DECAN   C1 4711   8.036  10.401   4.582 -0.0413 -0.3317  0.0402
  473DECAN   C2 4712   7.950  10.528   4.591  0.0503 -0.2629 -0.0441
  473DECAN   C3 4713   8.024  10.655   4.639 -0.1389 -0.0257 -0.3751
  473DECAN   C4 4714   7.949  10.790   4.639 -0.1442 -0.0254  0.6967
  473DECAN   C5 4715   8.036  10.915   4.661 -0.0783  0.0928 -0.2164
  473DECAN   C6 4716   7.955  11.046   4.666 -0.3569 -0.0813 -0.1920
  473DECAN   C7 4717   8.023  11.178   4.628 -0.3908 -0.2116 -0.7071
  473DECAN   C8 4718   7.956   0.067   4.665 -0.1852 -0.2100 -0.3374
  473DECAN   C9 4719   8.049   0.189   4.653 -0.2062 -0.1898 -0.2975
  473DECAN  C10 4720   8.171   0.170   4.746  0.0764 -0.2757 -0.6854
  474DECAN   C1 4721   6.586   0.742   5.761 -0.2707  0.2320  0.0021
  474DECAN   C2 4722   6.681   0.852   5.813 -0.4544  0.4821 -0.1842
  474DECAN   C3 4723   6.812   0.790   5.866 -0.5006  0.3899 -0.1768
  474DECAN   C4 4724   6.926   0.882   5.915 -0.4299  0.4748 -0.4951
  474DECAN   C5 4725   6.896   0.978   6.032  0.0985  0.6838 -0.5321
  474DECAN   C6 4726   7.027   1.027   6.097 -0.0684 -0.1933  0.4846
  474DECAN   C7 4727   7.128   0.914   6.122 -0.0259 -0.1781  0.3831
  474DECAN   C8 4728   7.218   0.884   6.001 -0.6107 -0.4896  0.0238
  474DECAN   C9 4729   7.341   0.796   6.027 -0.1284  0.0716 -0.3507
  474DECAN  C10 4730   7.432   0.766   5.906  0.0750  0.1980 -0.2307
  475DECAN   C1 4731   6.118  10.683  11.563  0.2649 -0.4614 -1.1688
  475DECAN   C2 4732   6.234  10.587  11.596  0.4226  0.0986 -0.0547
  475DECAN   C3 4733   6.215  10.436  11.576  0.4499  0.1156 -0.2151
  475DECAN   C4 4734   6.316  10.339  11.640 -0.0507 -0.1211  0.2350
  475DECAN   C5 4735   6.291  10.189  11.613 -0.4607 -0.0937  0.4715
  475DECAN   C6 4736   6.246  10.180  11.466  0.0906  0.2427  0.2788
  475DECAN   C7 4737   6.216  10.037  11.417  0.0879  0.4442 -0.3106
  475DECAN   C8 4738   6.179  10.026  11.268  0.2113 -0.6408 -0.2666
  475DECAN   C9 4739   6.286  10.068  11.165 -0.3873  0.6159 -0.3915
  475DECAN  C10 4740   6.226  10.059  11.023  0.2116 -0.2612 -0.5976
  476DECAN   C1 4741   1.910   5.820  14.423 -0.2270  0.3390  0.0154
  476DECAN   C2 4742   2.052   5.787  14.374 -0.0229 -0.2866  0.9862
  476DECAN   C3 4743   2.099   5.867  14.251  0.3058 -0.9939  0.6451
  476DECAN   C4 4744   2.200   5.787  14.165  0.4804 -0.3299  0.2241
  476DECAN   C5 4745   2.128   5.682  14.079  0.0122  0.2939 -0.1576
  476DECAN   C6 4746   2.220   5.599  13.986  0.1558 -0.3710  0.5668
  476DECAN   C7 4747   2.163   5.498  13.885  0.9107 -0.7348  0.5031
  476DECAN   C8 4748   2.064   5.396  13.943 -0.6041  0.5318  0.1979
  476DECAN   C9 4749   1.995   5.309  13.836 -0.0389 -0.2660  0.4769
  476DECAN  C10 4750   1.912   5.191  13.891 -0.1646 -0.2179  0.3902
  477DECAN   C1 4751   2.895   7.561  12.564 -1.3118 -0.2163  0.1483
  477DECAN   C2 4752   2.929   7.478  12.690  0.4346 -0.0838 -0.2050
  477DECAN   C3 4753   2.836   7.356  12.694  0.6363 -0.2154  0.6279
  477DECAN   C4 4754   2.852   7.262  12.815  1.4717 -0.4671  0.3240
  477DECAN   C5 4755   2.781   7.126  12.805 -0.2845  0.4973 -0.8256
  477DECAN   C6 4756   2.781   7.040  12.933 -0.0395  1.1852 -0.3601
  477DECAN   C7 4757   2.690   7.078  13.051 -0.5897 -0.0733 -0.3631
  477DECAN   C8 4758   2.724   7.003  13.181  0.2533  0.4281 -0.2848
  477DECAN   C9 4759   2.628   7.039  13.296  0.4590  0.1698 -0.0289
  477DECAN  C10 4760   2.672   6.989  13.434 -0.3755 -0.2843  0.0804
  478DECAN   C1 4761   3.504   3.308  10.545 -0.0577  0.0422 -0.5434
  478DECAN   C2 4762   3.460   3.455  10.561 -0.1715 -0.0468 -0.0309
  478DECAN   C3 4763   3.523   3.529  10.680 -0.0806 -0.1111 -0.0395
  478DECAN   C4 4764   3.585   3.449  10.796  0.4098  0.4482  0.0885
  478DECAN   C5 4765   3.717   3.372  10.777 -0.0002 -0.2467  0.0420
  478DECAN   C6 4766   3.786   3.336  10.909 -0.0840 -0.3715  0.0525
  478DECAN   C7 4767   3.911   3.250  10.885  0.1476 -0.1821  0.5576
  478DECAN   C8 4768   3.869   3.129  10.799 -0.1749  0.4447 -0.1796
  478DECAN   C9 4769   3.981   3.056  10.723  0.1006  0.1906  0.4613
  478DECAN  C10 4770   4.077   3.146  10.642 -0.0614  0.0559  0.1180
  479DECAN   C1 4771   9.321   8.490   5.884  0.2710  0.0632 -0.2244
  479DECAN   C2 4772   9.288   8.380   5.782  0.7839 -0.1878 -0.1261
  479DECAN   C3 4773   9.398   8.347   5.680  0.6822 -0.2289 -0.2229
  479DECAN   C4 4774   9.453   8.470   5.606  0.0648  0.3810  0.3210
  479DECAN   C5 4775   9.541   8.443   5.483  0.0601  0.0868  0.3818
  479DECAN   C6 4776   9.573   8.574   5.407  0.0854 -0.0397  0.1719
  479DECAN   C7 4777   9.670   8.560   5.289 -0.1671 -0.5757  0.0220
  479DECAN   C8 4778   9.706   8.695   5.223 -0.2023 -0.2343  0.6887
  479DECAN   C9 4779   9.801   8.671   5.103  0.1059  0.1184  0.8624
  479DECAN  C10 4780   9.826   8.803   5.028  0.2000 -0.2574  0.2279
  480DECAN   C1 4781   5.186   6.654  11.496  0.0553  0.4190  0.0759
  480DECAN   C2 4782   5.326   6.656  11.560 -0.0117  0.3077  0.2257
  480DECAN   C3 4783   5.321   6.633  11.712  0.0915 -0.4686  0.1203
  480DECAN   C4 4784   5.460   6.632  11.778 -0.2419  0.4401  0.8623
  480DECAN   C5 4785   5.474   6.560  11.913 -0.2076 -0.5486  0.3358
  480DECAN   C6 4786   5.609   6.604  11.973 -0.5220 -0.2897  0.8556
  480DECAN   C7 4787   5.735   6.562  11.895 -1.1786 -0.4473 -0.1348
  480DECAN   C8 4788   5.739   6.635  11.759 -0.0085 -0.3158 -0.0321
  480DECAN   C9 4789   5.841   6.563  11.669 -0.0384  0.1271 -0.4241
  480DECAN  C10 4790   5.885   6.624  11.535  0.8694 -0.1414 -0.2566
  481DECAN   C1 4791   8.326   6.668   5.217  0.8379 -0.5626 -0.0484
  481DECAN   C2 4792   8.294   6.598   5.350 -0.4294 -0.5794 -0.3506
  481DECAN   C3 4793   8.368   6.468   5.385 -0.0403 -0.3679 -0.3814
  481DECAN   C4 4794   8.341   6.421   5.529  0.0986 -0.7072 -0.4633
  481DECAN   C5 4795   8.218   6.332   5.554 -0.3011 -0.1087 -0.2726
  481DECAN   C6 4796   8.196   6.294   5.702 -0.0817 -0.4151 -0.3164
  481DECAN   C7 4797   8.301   6.205   5.769 -0.0276 -0.2509 -0.1814
  481DECAN   C8 4798   8.269   6.175   5.917  0.3999  0.3117  0.0280
  481DECAN   C9 4799   8.257   6.302   6.003  0.0182  0.4364 -0.2057
  481DECAN  C10 4800   8.126   6.375   5.966 -0.1863  0.3041  0.2608
  482DECAN   C1 4801   9.888   8.614  13.131  0.6078  0.2126  0.3302
  482DECAN   C2 4802   9.828   8.713  13.029 -0.1096 -0.3665  0.1837
  482DECAN   C3 4803   9.910   8.703  12.899  0.1066 -0.7716  0.3488
  482DECAN   C4 4804  10.062   8.699  12.921  0.1623 -0.4789  0.0312
  482DECAN   C5 4805  10.137   8.685  12.787 -0.0431  1.2580 -0.2833
  482DECAN   C6 4806  10.289   8.673  12.806 -0.2261 -0.4636  0.2453
  482DECAN   C7 4807  10.364   8.644  12.674  0.0960 -0.2144  0.3708
  482DECAN   C8 4808  10.515   8.628  12.698  0.1408 -0.7112 -0.2233
  482DECAN   C9 4809  10.602   8.633  12.571 -0.0308 -0.4563 -0.3302
  482DECAN  C10 4810  10.637   8.774  12.520 -0.6798 -0.2216 -0.1363
  483DECAN   C1 4811   9.386   5.132  10.981  0.1763  0.0172 -0.3263
  483DECAN   C2 4812   9.382   5.240  11.091 -0.5783 -0.0973 -0.2403
  483DECAN   C3 4813   9.512   5.261  11.171 -0.5853 -0.0805 -0.2318
  483DECAN   C4 4814   9.587   5.148  11.245 -0.2007  0.3226  0.0011
  483DECAN   C5 4815   9.492   5.060  11.328  0.0193  0.0398 -0.0453
  483DECAN   C6 4816   9.553   4.938  11.399  0.2073  0.1485 -0.0196
  483DECAN   C7 4817   9.480   4.899  11.529 -0.2093 -0.0368 -0.3072
  483DECAN   C8 4818   9.334   4.849  11.530 -0.2678  0.1313  0.3871
  483DECAN   C9 4819   9.334   4.714  11.456 -0.5753  0.4111 -0.1328
  483DECAN  C10 4820   9.393   4.709  11.314  0.2884  0.3279  0.2220
  484DECAN   C1 4821   4.676   4.323  13.856  0.4236  0.0112 -0.2593
  484DECAN   C2 4822   4.593   4.199  13.895  0.1541  0.2266 -0.1523
  484DECAN   C3 4823   4.640   4.058  13.858  0.0517  0.1238  0.1025
  484DECAN   C4 4824   4.541   3.942  13.876 -0.0745  0.1628 -0.3267
  484DECAN   C5 4825   4.403   3.954  13.809 -0.1878 -0.2249 -0.1643
  484DECAN   C6 4826   4.313   4.068  13.862  0.6830  0.4869 -0.1948
  484DECAN   C7 4827   4.194   4.111  13.775  0.3893  0.1853  0.0532
  484DECAN   C8 4828   4.116   4.238  13.815 -0.0041 -0.0722  0.1079
  484DECAN   C9 4829   4.006   4.280  13.716  0.1536  0.6392  0.2262
  484DECAN  C10 4830   4.068   4.287  13.575 -0.7406 -0.5385 -0.2392
  485DECAN   C1 4831   3.713   8.198  14.001  0.2366 -0.0902 -0.0174
  485DECAN   C2 4832   3.685   8.286  13.878 -0.2641  0.4515  0.4752
  485DECAN   C3 4833   3.627   8.426  13.904 -0.1532  0.6533 -0.3368
  485DECAN   C4 4834   3.712   8.525  13.986  0.2040  0.3912 -0.3940
  485DECAN   C5 4835   3.631   8.638  14.052  0.2543  0.0991  0.1677
  485DECAN   C6 4836   3.544   8.582  14.167 -0.2575  0.1095 -0.2147
  485DECAN   C7 4837   3.473   8.692  14.249 -0.3917 -0.1508  0.0179
  485DECAN   C8 4838   3.574   8.753  14.348 -0.0848 -0.6165 -0.0035
  485DECAN   C9 4839   3.498   8.846  14.445 -0.0881 -0.7408  0.1127
  485DECAN  C10 4840   3.577   8.876  14.574 -0.1982  0.2244 -0.0399
  486DECAN   C1 4841   7.635   2.103  10.799 -0.6011 -0.8612  0.4736
  486DECAN   C2 4842   7.655   1.995  10.691  0.1382  0.0481 -0.3199
  486DECAN   C3 4843   7.705   1.867  10.759 -0.0105  0.0592 -0.1870
  486DECAN   C4 4844   7.854   1.882  10.797 -0.1258  0.4208  0.1183
  486DECAN   C5 4845   7.903   1.763  10.882 -0.3494  0.0925 -0.2102
  486DECAN   C6 4846   7.903   1.625  10.814  0.0515  0.2550 -0.5390
  486DECAN   C7 4847   7.756   1.592  10.784 -0.1049 -0.2236  0.7254
  486DECAN   C8 4848   7.724   1.444  10.758 -0.2088 -0.1026  0.1595
  486DECAN   C9 4849   7.804   1.397  10.635 -0.2447 -0.1696  0.1617
  486DECAN  C10 4850   7.952   1.366  10.663 -0.0417  0.2100 -0.4690
  487DECAN   C1 4851   3.709   4.256  14.840  0.1087 -0.4003  0.3706
  487DECAN   C2 4852   3.575   4.182  14.825  0.2236 -0.6734  0.6880
  487DECAN   C3 4853   3.548   4.158  14.676  0.3889 -0.0585  0.5547
  487DECAN   C4 4854   3.616   4.031  14.621 -0.0591 -0.1313  0.1604
  487DECAN   C5 4855   3.560   3.990  14.484 -0.0867 -0.4390  0.2608
  487DECAN   C6 4856   3.609   3.853  14.435  0.4063 -0.0273 -0.4191
  487DECAN   C7 4857   3.524   3.739  14.495  0.1146  0.2290 -0.3440
  487DECAN   C8 4858   3.376   3.777  14.481 -0.0714 -0.1139  0.6024
  487DECAN   C9 4859   3.274   3.709  14.574 -0.4784  0.0766  0.3024
  487DECAN  C10 4860   3.132   3.754  14.536 -0.1324  0.3264 -0.7449
  488DECAN   C1 4861   1.233   7.967  11.148 -0.2153  0.2505  0.1094
  488DECAN   C2 4862   1.269   8.042  11.019 -0.1671 -0.6573 -0.4111
  488DECAN   C3 4863   1.271   8.196  11.026 -0.5325 -0.6644 -0.1201
  488DECAN   C4 4864   1.282   8.262  10.887  0.3415 -0.1748  0.1744
  488DECAN   C5 4865   1.156   8.264  10.798  0.3220 -0.2079  0.2012
  488DECAN   C6 4866   1.177   8.335  10.664 -0.2862  0.2668  0.3553
  488DECAN   C7 4867   1.283   8.258  10.582 -0.2618  0.0154  0.6224
  488DECAN   C8 4868   1.328   8.337  10.457 -0.2832 -0.2222  0.4641
  488DECAN   C9 4869   1.381   8.479  10.487  0.4590 -0.4763  0.3719
  488DECAN  C10 4870   1.432   8.546  10.358 -0.1647 -0.9300 -0.1202
  489DECAN   C1 4871  10.871   2.823   7.377 -0.0050  0.1824  0.6052
  489DECAN   C2 4872  10.740   2.897   7.344  0.0284 -0.1919 -0.4151
  489DECAN   C3 4873  10.759   3.045   7.380 -0.2434 -0.2752  0.0886
  489DECAN   C4 4874  10.636   3.136   7.366  0.0356  0.0868 -0.0404
  489DECAN   C5 4875  10.500   3.093   7.425 -0.1350  0.3092 -0.2681
  489DECAN   C6 4876  10.384   3.178   7.371 -0.1849  0.3422 -0.1089
  489DECAN   C7 4877  10.247   3.152   7.436  0.0504  0.1498  0.3145
  489DECAN   C8 4878  10.141   3.239   7.367  0.0371 -0.2212 -0.1408
  489DECAN   C9 4879  10.000   3.222   7.427  0.1418 -0.3604  0.0662
  489DECAN  C10 4880  10.000   3.266   7.574  0.0494  0.6570 -0.2290
  490DECAN   C1 4881   3.720   9.366  10.093 -0.0021  0.2971 -0.4839
  490DECAN   C2 4882   3.598   9.355   9.999 -0.1291  0.5708 -0.3501
  490DECAN   C3 4883   3.590   9.469   9.895 -0.3046  0.6162 -0.2874
  490DECAN   C4 4884   3.455   9.468   9.821 -0.0604 -0.0466 -0.7353
  490DECAN   C5 4885   3.450   9.593   9.731  0.0741  0.3672 -0.1738
  490DECAN   C6 4886   3.544   9.593   9.609  0.1247  0.1064 -0.1363
  490DECAN   C7 4887   3.511   9.702   9.506 -0.4434  0.2094  0.1549
  490DECAN   C8 4888   3.614   9.706   9.392 -0.4357  0.2000  0.1618
  490DECAN   C9 4889   3.636   9.561   9.345  0.2852  0.1706  0.5780
  490DECAN  C10 4890   3.778   9.512   9.311 -0.1159 -0.2772 -0.4919
  491DECAN   C1 4891   8.319   4.896   4.781  0.2605 -0.1411 -0.4171
  491DECAN   C2 4892   8.458   4.933   4.727  0.4335 -0.0258  0.1101
  491DECAN   C3 4893   8.490   5.084   4.721 -0.3200  0.1181 -0.3317
  491DECAN   C4 4894   8.611   5.116   4.632  0.2206 -0.3418  0.2285
  491DECAN   C5 4895   8.684   5.246   4.671 -0.0403 -0.0510 -0.2417
  491DECAN   C6 4896   8.793   5.280   4.568  0.4620  0.1615  0.3595
  491DECAN   C7 4897   8.875   5.167   4.503 -0.1040  0.0672 -0.1978
  491DECAN   C8 4898   8.987   5.211   4.408 -0.0900  0.5040  0.0147
  491DECAN   C9 4899   9.023   5.104   4.303 -0.3437  0.5978 -0.1671
  491DECAN  C10 4900   9.146   5.126   4.214 -0.1446 -0.0755 -0.0641
  492DECAN   C1 4901   8.461   8.796  14.939 -0.6538  0.0209  0.6802
  492DECAN   C2 4902   8.428   8.653  14.891 -0.2819  0.0716  0.2639
  492DECAN   C3 4903   8.306   8.648  14.797  0.0829  0.5492 -0.2396
  492DECAN   C4 4904   8.309   8.750  14.682 -0.9107  0.6649 -0.1705
  492DECAN   C5 4905   8.215   8.714  14.566 -0.7506  0.0906 -0.1236
  492DECAN   C6 4906   8.074   8.713  14.629 -0.4461  0.0993  0.5641
  492DECAN   C7 4907   7.981   8.686  14.510 -0.2342  0.2406  0.3664
  492DECAN   C8 4908   7.980   8.789  14.395 -0.2621 -0.1597  0.0038
  492DECAN   C9 4909   7.944   8.931  14.442 -0.0736 -0.0408 -0.2105
  492DECAN  C10 4910   7.923   9.024  14.321 -0.1348  0.2329  0.0094
  493DECAN   C1 4911   3.017   1.801  13.982  0.5721 -0.3261  0.2875
  493DECAN   C2 4912   2.935   1.692  14.054 -0.1464  0.0787  0.0881
  493DECAN   C3 4913   3.011   1.585  14.136 -0.5342 -0.2647  0.0060
  493DECAN   C4 4914   3.099   1.647  14.245 -0.0483 -0.6571 -0.1624
  493DECAN   C5 4915   3.185   1.544  14.320  0.3974  0.2910  0.6642
  493DECAN   C6 4916   3.097   1.440  14.394  0.0032  0.4288  0.3924
  493DECAN   C7 4917   3.191   1.334  14.455 -0.4785 -0.3336 -0.1801
  493DECAN   C8 4918   3.282   1.268  14.350  0.1924 -0.3743  0.4239
  493DECAN   C9 4919   3.398   1.188  14.414  0.2237 -0.2272  0.5510
  493DECAN  C10 4920   3.490   1.123  14.310 -0.2694 -0.5997  0.3445
  494DECAN   C1 4921   5.608   1.570   9.479 -0.5520 -0.6600 -0.0497
  494DECAN   C2 4922   5.677   1.587   9.615  0.0984 -0.1814 -0.4292
  494DECAN   C3 4923   5.564   1.595   9.720  0.4642  0.3309 -0.0734
  494DECAN   C4 4924   5.445   1.679   9.672  0.2775 -0.0888 -0.3478
  494DECAN   C5 4925   5.333   1.699   9.777  0.2283 -0.1361 -0.3909
  494DECAN   C6 4926   5.238   1.817   9.750 -0.2777 -0.3855  0.2753
  494DECAN   C7 4927   5.165   1.870   9.874 -0.4419  0.4078 -0.1508
  494DECAN   C8 4928   5.261   1.948   9.966  0.0717 -0.0926 -0.2619
  494DECAN   C9 4929   5.287   2.088   9.908  0.6506 -0.1701 -0.2031
  494DECAN  C10 4930   5.356   2.181  10.010 -0.2691  0.0192  0.2693
  495DECAN   C1 4931   3.026   5.430   5.567  0.6359  0.1734 -0.1639
  495DECAN   C2 4932   3.160   5.365   5.528  0.4797 -0.4972  0.3984
  495DECAN   C3 4933   3.148   5.212   5.512 -0.5980 -0.3386 -0.4394
  495DECAN   C4 4934   3.283   5.152   5.469 -0.1865  0.0997  0.2164
  495DECAN   C5 4935   3.294   5.004   5.426  0.2247  0.1029  0.2999
  495DECAN   C6 4936   3.286   4.896   5.535 -0.6252 -0.0524  0.0965
  495DECAN   C7 4937   3.258   4.748   5.500 -0.6934 -0.1064  0.3801
  495DECAN   C8 4938   3.356   4.688   5.399 -0.4175  0.2357  0.4401
  495DECAN   C9 4939   3.341   4.535   5.381  0.0513  0.2795 -0.3987
  495DECAN  C10 4940   3.403   4.480   5.252  0.0739 -0.2402 -0.1666
  496DECAN   C1 4941   4.397   4.165  10.968  0.0040  0.2048 -0.3001
  496DECAN   C2 4942   4.487   4.168  10.843  0.6237  0.6023  0.1445
  496DECAN   C3 4943   4.402   4.196  10.718 -0.0105 -0.2621  0.3709
  496DECAN   C4 4944   4.294   4.089  10.689 -0.3636  0.2424 -0.2237
  496DECAN   C5 4945   4.219   4.115  10.558  0.0848  0.0894 -0.5110
  496DECAN   C6 4946   4.147   3.982  10.530 -1.0243  0.5360  0.2137
  496DECAN   C7 4947   4.089   3.965  10.389  0.5423  0.3247 -0.4114
  496DECAN   C8 4948   4.051   3.821  10.349  0.9710  0.2210 -0.4517
  496DECAN   C9 4949   4.045   3.797  10.197  0.5206  0.7316 -0.5176
  496DECAN  C10 4950   3.999   3.654  10.164  1.2272  0.3269  0.2180
  497DECAN   C1 4951   8.380   1.939  10.700  0.0925 -0.0052  0.3728
  497DECAN   C2 4952   8.251   1.859  10.676  0.1004  0.1712 -0.3027
  497DECAN   C3 4953   8.209   1.851  10.528 -0.4391  0.6899 -0.1825
  497DECAN   C4 4954   8.096   1.751  10.495  0.3670 -0.2072 -0.2803
  497DECAN   C5 4955   8.051   1.752  10.348  0.3625  0.2863 -0.2760
  497DECAN   C6 4956   7.949   1.640  10.320  0.1708  0.4129 -0.0955
  497DECAN   C7 4957   7.901   1.635  10.173  0.2349  0.2153 -0.1102
  497DECAN   C8 4958   7.796   1.525  10.153  0.3462  0.0243  0.3208
  497DECAN   C9 4959   7.743   1.525  10.008  0.0345 -0.3949  0.4333
  497DECAN  C10 4960   7.621   1.432   9.992 -0.1220 -0.1649  0.2849
  498DECAN   C1 4961   8.142   8.928   5.511  0.1959 -0.4511  0.0492
  498DECAN   C2 4962   8.166   9.071   5.460  0.4034 -0.3628  0.3853
  498DECAN   C3 4963   8.219   9.175   5.560  0.0235 -0.0128  0.2282
  498DECAN   C4 4964   8.122   9.188   5.678 -0.1053  0.1420  0.1054
  498DECAN   C5 4965   8.162   9.268   5.803 -0.0678  0.5377 -0.1568
  498DECAN   C6 4966   8.048   9.281   5.906 -0.4713  0.4191 -0.5875
  498DECAN   C7 4967   8.087   9.369   6.026 -0.0288 -0.0958 -0.3465
  498DECAN   C8 4968   7.988   9.377   6.144 -0.3524  0.0039 -0.6220
  498DECAN   C9 4969   8.006   9.511   6.218 -0.2970 -0.4261  0.1520
  498DECAN  C10 4970   7.909   9.578   6.317  0.2194  0.4360  0.0782
  499DECAN   C1 4971   8.552   7.232  13.093  0.1310  0.1080  0.1034
  499DECAN   C2 4972   8.691   7.227  13.027 -0.0905  0.0224 -0.3635
  499DECAN   C3 4973   8.684   7.211  12.874  0.5970 -0.3515 -0.3597
  499DECAN   C4 4974   8.813   7.167  12.802  0.3806 -0.7376 -0.5141
  499DECAN   C5 4975   8.786   7.141  12.653 -0.0971  0.2532 -0.6048
  499DECAN   C6 4976   8.921   7.144  12.580  0.1488 -0.4964 -0.1849
  499DECAN   C7 4977   8.903   7.120  12.429  0.0097 -1.2581 -0.0493
  499DECAN   C8 4978   9.040   7.123  12.359  0.0229  0.4354  0.0021
  499DECAN   C9 4979   9.024   7.063  12.218 -0.1125  0.3616  0.0497
  499DECAN  C10 4980   9.154   7.067  12.136 -0.0707  0.0964  0.1030
  500DECAN   C1 4981   3.875   4.668   9.208  0.1298  0.9791  0.0344
  500DECAN   C2 4982   3.816   4.694   9.068 -0.0602 -0.0654 -0.0920
  500DECAN   C3 4983   3.932   4.681   8.967  0.2910 -0.3444  0.3434
  500DECAN   C4 4984   4.039   4.786   9.004 -0.1566  0.3039 -0.1695
  500DECAN   C5 4985   4.088   4.779   9.150 -0.4869 -0.4733 -0.0901
  500DECAN   C6 4986   4.188   4.889   9.188 -0.5436 -0.4764  0.0686
  500DECAN   C7 4987   4.338   4.867   9.159 -0.4985  0.0911 -0.1463
  500DECAN   C8 4988   4.398   4.971   9.063 -0.0633 -0.1123 -0.0967
  500DECAN   C9 4989   4.546   4.940   9.031  0.1239  0.6653 -0.0009
  500DECAN  C10 4990   4.571   4.791   9.001 -0.3315  0.5674  0.0864
  501DECAN   C1 4991   6.987   8.570  13.885 -0.2192  0.4124 -1.0009
  501DECAN   C2 4992   6.923   8.539  14.021 -0.0228  0.3956 -0.9112
  501DECAN   C3 4993   6.841   8.647  14.095 -0.0323  0.0571 -0.4165
  501DECAN   C4 4994   6.768   8.607  14.224  0.2614  0.1338 -0.2260
  501DECAN   C5 4995   6.716   8.726  14.307  0.0529 -0.1459  0.0458
  501DECAN   C6 4996   6.630   8.685  14.428  0.2978 -0.4807  0.1082
  501DECAN   C7 4997   6.610   8.805  14.523 -1.1140 -0.8246  0.2617
  501DECAN   C8 4998   6.701   8.787  14.646  0.4015  0.2020 -0.6805
  501DECAN   C9 4999   6.685   8.917  14.727 -0.1166 -0.2460 -0.0584
  501DECAN  C10 5000   6.769   9.022  14.651  0.1365  0.0475  0.6211
  502DECAN   C1 5001  10.179   6.413  10.664 -0.0126  0.1999  0.5580
  502DECAN   C2 5002  10.256   6.546  10.678  0.0327  0.2571 -0.2102
  502DECAN   C3 5003  10.306   6.571  10.821 -0.0126 -0.0860 -0.1346
  502DECAN   C4 5004  10.407   6.686  10.832  0.0493 -0.1779  0.2906
  502DECAN   C5 5005  10.518   6.675  10.726  0.0711 -0.0525  0.3002
  502DECAN   C6 5006  10.612   6.795  10.746 -0.1752  0.1033  0.5212
  502DECAN   C7 5007  10.555   6.938  10.741 -0.1359  0.1165  0.4668
  502DECAN   C8 5008  10.669   7.041  10.736  0.1312 -0.1943  0.0733
  502DECAN   C9 5009  10.702   7.080  10.590 -0.5598 -0.0206 -0.0408
  502DECAN  C10 5010  10.801   7.198  10.585 -0.2048 -0.3501 -0.7773
  503DECAN   C1 5011   4.069   1.074  11.287  0.6502 -0.8340  0.4414
  503DECAN   C2 5012   4.203   1.127  11.340  0.3558 -0.2265  0.5819
  503DECAN   C3 5013   4.188   1.264  11.410 -0.4060  0.1934 -0.3724
  503DECAN   C4 5014   4.308   1.340  11.470 -0.3786 -0.3133  0.2343
  503DECAN   C5 5015   4.270   1.484  11.508 -0.5094 -0.3812  0.3631
  503DECAN   C6 5016   4.380   1.571  11.573  0.1187 -0.8227 -0.0976
  503DECAN   C7 5017   4.434   1.535  11.712 -0.7305 -0.2952  0.3720
  503DECAN   C8 5018   4.485   1.390  11.719 -0.1241 -0.0873  0.2972
  503DECAN   C9 5019   4.551   1.361  11.855  0.1273 -0.4282  0.1048
  503DECAN  C10 5020   4.596   1.213  11.857  0.1887 -0.4071  0.3256
  504DECAN   C1 5021   3.986   8.008   8.597  0.0803 -0.1032 -0.0841
  504DECAN   C2 5022   4.071   8.128   8.643  0.1304  0.0075 -0.4645
  504DECAN   C3 5023   4.106   8.222   8.526 -0.0200  0.6210 -0.0179
  504DECAN   C4 5024   4.191   8.166   8.411 -0.4468  0.5112 -0.2838
  504DECAN   C5 5025   4.223   8.272   8.305  0.5842  0.4701 -0.0257
  504DECAN   C6 5026   4.351   8.243   8.224  0.5130 -0.1927  0.0983
  504DECAN   C7 5027   4.391   8.354   8.126  0.7018 -0.2135  0.1510
  504DECAN   C8 5028   4.378   8.496   8.183  0.8173 -0.0437 -0.2403
  504DECAN   C9 5029   4.380   8.602   8.071 -0.3604  0.1757 -0.0717
  504DECAN  C10 5030   4.370   8.746   8.123  0.2248  0.2954 -0.2807
  505DECAN   C1 5031   4.436   5.840   4.907  0.3700 -0.1648  0.0953
  505DECAN   C2 5032   4.575   5.905   4.911  0.2075  0.1932 -0.1189
  505DECAN   C3 5033   4.631   5.890   5.054 -0.5280 -0.5971  0.0915
  505DECAN   C4 5034   4.771   5.951   5.072 -1.0398  0.5628  0.2223
  505DECAN   C5 5035   4.780   6.100   5.034  0.0032  0.4613  0.0481
  505DECAN   C6 5036   4.767   6.114   4.882  0.2629  0.0044 -0.0149
  505DECAN   C7 5037   4.778   6.264   4.849 -0.0593  0.0036 -0.1291
  505DECAN   C8 5038   4.751   6.296   4.701  0.0080 -0.0966 -0.1631
  505DECAN   C9 5039   4.811   6.428   4.650 -0.3021 -0.0095 -0.3086
  505DECAN  C10 5040   4.803   6.449   4.498  0.8875  0.0865 -0.3707
  506DECAN   C1 5041   5.306   4.675   7.619  0.4510 -0.1636  0.3174
  506DECAN   C2 5042   5.244   4.564   7.707 -0.3701  0.1923  0.1941
  506DECAN   C3 5043   5.120   4.628   7.771 -0.6405 -0.2029  0.0680
  506DECAN   C4 5044   5.019   4.519   7.813 -0.3427 -0.2533  0.6652
  506DECAN   C5 5045   4.883   4.579   7.851 -0.5830 -0.2766 -0.1449
  506DECAN   C6 5046   4.820   4.675   7.747 -0.7562 -0.0610  0.1571
  506DECAN   C7 5047   4.688   4.741   7.789 -0.7566 -0.0019  0.0624
  506DECAN   C8 5048   4.682   4.841   7.907 -0.2552  0.0460  0.0501
  506DECAN   C9 5049   4.559   4.933   7.897 -0.2609  0.0797  0.4156
  506DECAN  C10 5050   4.545   5.062   7.980 -0.1377  0.2166  0.2241
  507DECAN   C1 5051   9.042   5.634   6.274  0.1692 -0.5082  0.3648
  507DECAN   C2 5052   9.161   5.558   6.212 -0.0047 -0.4000 -0.1081
  507DECAN   C3 5053   9.118   5.448   6.113 -0.0563 -0.4282 -0.0545
  507DECAN   C4 5054   9.213   5.421   5.995  0.2905  0.2043  0.0767
  507DECAN   C5 5055   9.227   5.553   5.916  0.2494  0.0965 -0.1108
  507DECAN   C6 5056   9.292   5.533   5.778  0.4804  0.0070  0.0104
  507DECAN   C7 5057   9.321   5.662   5.700 -0.4082  0.4332  0.3700
  507DECAN   C8 5058   9.301   5.636   5.549  0.1213  0.1797  0.3393
  507DECAN   C9 5059   9.287   5.760   5.459 -0.1284  0.2635  0.4904
  507DECAN  C10 5060   9.156   5.840   5.466 -0.2074  0.1433  0.4116
  508DECAN   C1 5061   5.207   2.918   4.396 -0.0995 -0.7532  0.2125
  508DECAN   C2 5062   5.056   2.897   4.372 -0.2139 -0.1243  0.3678
  508DECAN   C3 5063   5.017   2.820   4.244  0.3364  0.5922 -0.2457
  508DECAN   C4 5064   5.081   2.681   4.237 -0.1162  0.3828 -0.2672
  508DECAN   C5 5065   5.067   2.601   4.106  0.0996 -0.1125  0.0067
  508DECAN   C6 5066   4.924   2.553   4.079  0.0413  0.0950 -0.0586
  508DECAN   C7 5067   4.816   2.662   4.092 -0.3259 -0.3202  0.3787
  508DECAN   C8 5068   4.685   2.610   4.030 -0.1279  0.0484 -0.3534
  508DECAN   C9 5069   4.580   2.723   4.037 -0.2715 -0.1181  0.2741
  508DECAN  C10 5070   4.467   2.712   3.933 -0.0567 -0.9229  0.1148
  509DECAN   C1 5071   9.924   3.043   9.036 -0.4915  0.7213 -0.2538
  509DECAN   C2 5072   9.909   3.059   9.189  0.2903 -0.6132 -0.0267
  509DECAN   C3 5073   9.995   2.972   9.283 -0.1502  0.3043  1.2504
  509DECAN   C4 5074  10.145   2.985   9.249 -0.2865 -0.4711  0.3069
  509DECAN   C5 5075  10.243   2.895   9.327  0.1886  0.1452  0.4201
  509DECAN   C6 5076  10.233   2.745   9.295  0.1905  0.3432 -0.5336
  509DECAN   C7 5077  10.086   2.699   9.301  0.2048  0.3449 -0.1746
  509DECAN   C8 5078  10.067   2.553   9.259  0.6316  0.1043  0.4520
  509DECAN   C9 5079  10.120   2.448   9.359  0.1507 -0.0586  0.5409
  509DECAN  C10 5080  10.089   2.302   9.323  0.4362 -0.0825  0.3845
  510DECAN   C1 5081   7.869  11.060   5.423  0.1023 -1.0115 -0.5809
  510DECAN   C2 5082   7.963  10.951   5.476  0.0937 -0.6956  0.0934
  510DECAN   C3 5083   8.113  10.976   5.448 -0.1206  0.7048  0.1132
  510DECAN   C4 5084   8.203  10.898   5.546  0.0648  0.0267 -0.5874
  510DECAN   C5 5085   8.148  10.911   5.689  0.1252  0.1927 -0.5796
  510DECAN   C6 5086   8.109  11.051   5.741  0.4259  0.1627 -0.2646
  510DECAN   C7 5087   8.146  11.083   5.887  0.4265  0.3361 -0.3018
  510DECAN   C8 5088   8.085  11.213   5.943 -0.1962 -0.3042  0.5372
  510DECAN   C9 5089   7.933  11.209   5.969 -0.2553  0.3022  0.2982
  510DECAN  C10 5090   7.886   0.072   6.069 -0.6712  0.1104  0.3115
  511DECAN   C1 5091   6.044   7.532   6.513  0.0203 -0.5421  0.2737
  511DECAN   C2 5092   6.182   7.542   6.446 -0.5240  0.8000 -0.6848
  511DECAN   C3 5093   6.264   7.669   6.474 -0.4141  0.7057 -0.5787
  511DECAN   C4 5094   6.385   7.661   6.379 -0.2286 -0.5194 -0.2537
  511DECAN   C5 5095   6.473   7.535   6.392  0.0428 -0.3011  0.0197
  511DECAN   C6 5096   6.411   7.400   6.354  0.3207 -0.3733 -0.1809
  511DECAN   C7 5097   6.497   7.282   6.403  0.1553 -0.2958  0.3031
  511DECAN   C8 5098   6.540   7.308   6.548  0.0721 -0.2088  0.3119
  511DECAN   C9 5099   6.627   7.187   6.587  0.0363 -0.4658 -0.4051
  511DECAN  C10 5100   6.652   7.174   6.738 -0.0870 -0.0162 -0.3455
  512DECAN   C1 5101   7.916   9.221  12.625  0.0623 -0.6202  0.2095
  512DECAN   C2 5102   8.015   9.280  12.727 -0.1143 -0.0476  0.0565
  512DECAN   C3 5103   8.010   9.182  12.846  0.2369 -0.2022 -0.0537
  512DECAN   C4 5104   8.063   9.040  12.823  0.2853 -0.2342  0.2462
  512DECAN   C5 5105   8.015   8.936  12.926  0.2502 -0.3062  0.1569
  512DECAN   C6 5106   8.108   8.813  12.923  0.0843 -0.4149 -0.8446
  512DECAN   C7 5107   8.249   8.841  12.977 -0.1382 -0.2624 -0.3312
  512DECAN   C8 5108   8.343   8.724  13.011  0.0855 -0.1283 -0.4769
  512DECAN   C9 5109   8.413   8.671  12.884  0.3096 -0.4764 -0.2117
  512DECAN  C10 5110   8.537   8.583  12.909  0.1859 -0.4226  0.6364
  513DECAN   C1 5111   5.698  11.118   8.981 -0.4749 -0.3772  0.5800
  513DECAN   C2 5112   5.780  11.132   9.111  0.1708 -0.0464  0.1432
  513DECAN   C3 5113   5.885  11.244   9.098 -0.1839  0.2311 -0.3928
  513DECAN   C4 5114   5.990  11.221   9.208 -0.1330  1.5139 -0.1649
  513DECAN   C5 5115   6.120   0.059   9.198  0.4815  0.5630 -0.1146
  513DECAN   C6 5116   6.210   0.024   9.318 -0.2256 -0.0320  0.2507
  513DECAN   C7 5117   6.229  11.116   9.310 -0.4778 -0.0679  0.3354
  513DECAN   C8 5118   6.291  11.044   9.431  0.0497  0.1763  0.2113
  513DECAN   C9 5119   6.317  10.896   9.394  0.2107  0.1321  0.4968
  513DECAN  C10 5120   6.353  10.798   9.507 -0.1252 -0.3839  0.1568
  514DECAN   C1 5121   2.102   3.617   7.416  0.5004  0.4869 -0.2527
  514DECAN   C2 5122   1.950   3.610   7.394  0.5000  0.1614 -0.1549
  514DECAN   C3 5123   1.906   3.665   7.257 -0.1283 -0.2774 -0.1337
  514DECAN   C4 5124   1.755   3.677   7.228 -0.0864 -0.3191 -0.3672
  514DECAN   C5 5125   1.714   3.675   7.079  0.1463 -0.1424 -0.4339
  514DECAN   C6 5126   1.565   3.705   7.054 -0.1314 -0.8124  0.3452
  514DECAN   C7 5127   1.507   3.666   6.917  0.3997 -0.1007 -0.0919
  514DECAN   C8 5128   1.555   3.760   6.805  0.4839  0.2707  0.2540
  514DECAN   C9 5129   1.524   3.694   6.669 -0.2796  0.4019  0.3574
  514DECAN  C10 5130   1.609   3.569   6.640 -0.2608  0.4152  0.3539
  515DECAN   C1 5131   7.751   7.442  15.077  0.6471  0.2289  0.6013
  515DECAN   C2 5132   7.614   7.504  15.108  0.3367  0.0051 -0.2645
  515DECAN   C3 5133   7.498   7.405  15.087  0.2742 -0.0007  0.0898
  515DECAN   C4 5134   7.356   7.461  15.100 -0.0941 -0.8991  0.0199
  515DECAN   C5 5135   7.241   7.360  15.080 -0.5934 -0.2254 -0.6000
  515DECAN   C6 5136   7.119   7.453  15.080  0.1469  0.7670 -0.1456
  515DECAN   C7 5137   6.989   7.376  15.051  0.2064  0.5350  0.1981
  515DECAN   C8 5138   6.864   7.462  15.077 -0.2190 -0.0161 -0.0082
  515DECAN   C9 5139   6.741   7.412  14.999  0.2752 -0.3516 -0.5778
  515DECAN  C10 5140   6.606   7.484  15.020  1.0293  0.8452  0.3181
  516DECAN   C1 5141   7.751   4.741  10.457  0.2369  0.1346  0.8651
  516DECAN   C2 5142   7.599   4.735  10.482  0.0182  0.0249 -0.3989
  516DECAN   C3 5143   7.537   4.876  10.490 -0.0305 -0.0472  0.7282
  516DECAN   C4 5144   7.384   4.869  10.481  0.0246 -0.2996 -0.1339
  516DECAN   C5 5145   7.328   5.010  10.455 -0.0262 -0.2086  0.4450
  516DECAN   C6 5146   7.186   5.024  10.511  0.0732  0.1035  0.6267
  516DECAN   C7 5147   7.107   5.155  10.497 -0.0322 -0.0427 -0.1839
  516DECAN   C8 5148   6.985   5.166  10.590  0.3276 -0.1847  0.3064
  516DECAN   C9 5149   7.011   5.139  10.739  0.0613  0.3318  0.4512
  516DECAN  C10 5150   6.895   5.178  10.832 -0.4808  0.1442 -0.1386
  517DECAN   C1 5151   5.997   7.914  12.813 -0.1730 -0.7066  0.0586
  517DECAN   C2 5152   5.875   7.986  12.872 -0.0852 -0.1410 -0.4378
  517DECAN   C3 5153   5.849   8.133  12.833 -0.1884 -0.1579 -0.4314
  517DECAN   C4 5154   5.738   8.196  12.920  0.4698  0.2579  0.1171
  517DECAN   C5 5155   5.682   8.327  12.863  0.4462  0.0394 -0.3697
  517DECAN   C6 5156   5.666   8.333  12.710  0.2512 -0.1771 -0.3587
  517DECAN   C7 5157   5.585   8.451  12.651  0.6885  0.3860  0.1514
  517DECAN   C8 5158   5.558   8.443  12.499  0.2197  0.3116  0.2379
  517DECAN   C9 5159   5.687   8.446  12.415 -0.1278 -0.1145 -0.3140
  517DECAN  C10 5160   5.667   8.446  12.263  0.2570 -0.2174 -0.3650
  518DECAN   C1 5161   4.893   7.382  11.430  0.1908 -0.4390  0.5364
  518DECAN   C2 5162   4.779   7.351  11.529 -0.0421  0.2009  0.4720
  518DECAN   C3 5163   4.668   7.457  11.536 -0.3179 -0.0507 -0.0702
  518DECAN   C4 5164   4.563   7.413  11.639 -0.0104  0.3713  0.4276
  518DECAN   C5 5165   4.456   7.518  11.676 -0.4322  0.1557 -0.1613
  518DECAN   C6 5166   4.398   7.582  11.549 -0.4527 -0.1107 -0.2858
  518DECAN   C7 5167   4.307   7.692  11.607 -0.0344  0.2139 -0.2416
  518DECAN   C8 5168   4.242   7.783  11.501  0.3671  0.6507 -0.1127
  518DECAN   C9 5169   4.147   7.892  11.555 -0.5504 -0.3253  0.2786
  518DECAN  C10 5170   4.107   7.988  11.442 -0.0253 -0.6470 -0.1900
  519DECAN   C1 5171  10.520   3.550  10.806  0.1468  0.1834 -0.0827
  519DECAN   C2 5172  10.598   3.433  10.870  0.1495  0.0170 -0.3868
  519DECAN   C3 5173  10.518   3.302  10.875  0.2316 -0.0070  0.3818
  519DECAN   C4 5174  10.519   3.232  10.738 -0.5394  0.3978  0.1619
  519DECAN   C5 5175  10.443   3.295  10.620 -0.3227 -0.0231 -0.2075
  519DECAN   C6 5176  10.457   3.214  10.490 -0.2852 -0.2328 -0.0715
  519DECAN   C7 5177  10.607   3.218  10.455 -0.3749  0.5468 -0.3741
  519DECAN   C8 5178  10.645   3.140  10.328 -0.2366  0.0707 -0.0415
  519DECAN   C9 5179  10.778   3.062  10.319 -0.0774  0.3118  0.2127
  519DECAN  C10 5180  10.821   3.020  10.177 -0.3819  0.8067 -0.0311
  520DECAN   C1 5181   2.996   3.982  13.901 -0.0588  0.0440 -0.2478
  520DECAN   C2 5182   3.045   3.853  13.970  0.3647 -0.1501 -0.9060
  520DECAN   C3 5183   3.133   3.871  14.095 -0.4524  0.0027 -0.3460
  520DECAN   C4 5184   3.059   3.907  14.225 -0.0636  0.6953 -0.3111
  520DECAN   C5 5185   2.982   4.040  14.217 -0.1990  0.5974 -0.6531
  520DECAN   C6 5186   2.931   4.093  14.352  0.4603  0.5226 -0.3695
  520DECAN   C7 5187   3.030   4.105  14.469 -0.3313 -0.0310  0.3627
  520DECAN   C8 5188   2.972   4.198  14.578 -0.3528  0.4293 -0.0414
  520DECAN   C9 5189   3.068   4.224  14.695 -0.3853  0.0521  0.0691
  520DECAN  C10 5190   3.197   4.303  14.667  0.0690 -0.5524  0.4263
  521DECAN   C1 5191   5.143   2.706  11.115 -0.4387 -0.1199  0.0932
  521DECAN   C2 5192   5.180   2.614  11.232 -0.0849  0.0143  0.0874
  521DECAN   C3 5193   5.278   2.680  11.330  0.3943 -0.0970 -0.3111
  521DECAN   C4 5194   5.292   2.616  11.470 -0.0358  0.0573 -0.1980
  521DECAN   C5 5195   5.153   2.607  11.537  0.0852  0.2340  0.0820
  521DECAN   C6 5196   5.052   2.504  11.483  0.8319 -0.1883 -0.5460
  521DECAN   C7 5197   5.104   2.360  11.502  0.6147 -0.1973  0.0186
  521DECAN   C8 5198   4.988   2.259  11.501 -0.0303  0.5309  0.1096
  521DECAN   C9 5199   4.888   2.280  11.617  0.0089  0.7077  0.1116
  521DECAN  C10 5200   4.768   2.187  11.597  0.6090 -0.0782  0.1008
  522DECAN   C1 5201   7.432   7.899   7.585  0.4677 -0.4208  0.0146
  522DECAN   C2 5202   7.317   7.969   7.660  0.4473 -0.7291  0.2737
  522DECAN   C3 5203   7.266   7.914   7.794  0.3751 -0.0828  0.5150
  522DECAN   C4 5204   7.165   7.999   7.873 -0.3324 -0.4910  0.0658
  522DECAN   C5 5205   7.038   8.031   7.792 -0.1525 -0.0570 -0.0525
  522DECAN   C6 5206   6.915   7.940   7.813 -0.5138  0.4592  0.0929
  522DECAN   C7 5207   6.781   8.013   7.788 -0.6139  0.4113  0.4850
  522DECAN   C8 5208   6.729   8.098   7.905  0.1305  0.3797  0.8485
  522DECAN   C9 5209   6.595   8.167   7.870  0.1782  0.2532  0.4120
  522DECAN  C10 5210   6.487   8.058   7.881  0.3899  0.0244  0.2414
  523DECAN   C1 5211   5.578   5.290   5.407 -0.3151 -0.0476 -0.6064
  523DECAN   C2 5212   5.644   5.156   5.373  0.3209  0.0286  0.2902
  523DECAN   C3 5213   5.764   5.176   5.279  0.4444 -0.0178  0.4371
  523DECAN   C4 5214   5.868   5.064   5.262  0.4491  0.0001  0.3466
  523DECAN   C5 5215   5.953   5.086   5.136  0.2401 -0.4197  0.1314
  523DECAN   C6 5216   6.066   5.189   5.154 -0.3476  0.2002  0.2964
  523DECAN   C7 5217   6.151   5.200   5.026  0.1856 -0.1657  0.6148
  523DECAN   C8 5218   6.238   5.074   5.013  0.4100  0.0525 -0.0968
  523DECAN   C9 5219   6.328   5.059   4.889 -0.1897  0.0345 -0.5331
  523DECAN  C10 5220   6.258   4.992   4.769 -0.7079 -0.6128  0.1232
  524DECAN   C1 5221   3.070   5.136   6.370 -0.3104 -0.3726 -0.2873
  524DECAN   C2 5222   3.072   5.105   6.521  0.6864  0.2958 -0.1491
  524DECAN   C3 5223   3.150   5.198   6.616 -0.2440  0.3195  0.6120
  524DECAN   C4 5224   3.145   5.176   6.768  0.1044 -0.1658  0.5538
  524DECAN   C5 5225   3.225   5.280   6.848  0.3132  0.0851  0.0186
  524DECAN   C6 5226   3.243   5.271   7.001  0.5661 -0.6086 -0.0499
  524DECAN   C7 5227   3.299   5.400   7.064 -0.0076 -0.4834  0.2066
  524DECAN   C8 5228   3.302   5.403   7.218 -0.5089 -0.3600  0.2157
  524DECAN   C9 5229   3.403   5.301   7.274  0.1368 -0.1836 -0.6009
  524DECAN  C10 5230   3.365   5.154   7.251 -0.7028 -0.0630 -0.0463
  525DECAN   C1 5231   3.818  10.766  10.677 -0.2624 -0.1040 -0.1372
  525DECAN   C2 5232   3.723  10.685  10.588 -0.5053 -0.2882  0.2838
  525DECAN   C3 5233   3.767  10.547  10.536 -0.2646 -0.1092  0.0089
  525DECAN   C4 5234   3.652  10.461  10.479  0.3237 -0.7693 -0.1985
  525DECAN   C5 5235   3.543  10.433  10.584  0.1346 -0.5180 -0.3274
  525DECAN   C6 5236   3.437  10.341  10.520  0.1320 -0.8989  0.2197
  525DECAN   C7 5237   3.334  10.294  10.624 -0.3433 -0.0326  0.1440
  525DECAN   C8 5238   3.232  10.196  10.563  0.3784 -0.3635 -0.5527
  525DECAN   C9 5239   3.151  10.264  10.451  0.4381 -0.0997 -0.4376
  525DECAN  C10 5240   3.066  10.166  10.367 -0.0541  0.5011 -0.6445
  526DECAN   C1 5241   6.197   5.273   7.099 -0.0570 -0.4338  0.0191
  526DECAN   C2 5242   6.089   5.365   7.039  0.0912 -0.5926 -0.4976
  526DECAN   C3 5243   5.943   5.325   7.065 -0.0255 -0.1996 -0.5433
  526DECAN   C4 5244   5.834   5.399   6.986  0.0155 -0.5007 -0.8834
  526DECAN   C5 5245   5.858   5.396   6.834  0.1381 -0.4421 -0.8652
  526DECAN   C6 5246   5.947   5.514   6.792  0.3960 -0.3672 -0.1190
  526DECAN   C7 5247   5.936   5.527   6.639 -0.2480 -0.3483 -0.0733
  526DECAN   C8 5248   5.975   5.394   6.573 -0.4501 -0.5194  0.1521
  526DECAN   C9 5249   6.123   5.364   6.603 -0.2661  0.2677  0.0475
  526DECAN  C10 5250   6.170   5.241   6.523 -0.6415  0.1418  0.0189
  527DECAN   C1 5251   1.728   7.860  10.093 -0.2053 -0.3445  0.1755
  527DECAN   C2 5252   1.744   7.857   9.940 -0.8355  0.0798  0.0972
  527DECAN   C3 5253   1.623   7.895   9.853  0.0317  0.8820 -0.7859
  527DECAN   C4 5254   1.632   7.844   9.708 -0.0784 -0.1110 -0.4517
  527DECAN   C5 5255   1.512   7.870   9.616 -0.3700  0.4642  0.0777
  527DECAN   C6 5256   1.535   7.807   9.477  0.0559  0.2347  0.2480
  527DECAN   C7 5257   1.413   7.811   9.383  0.3587 -0.6468 -0.1888
  527DECAN   C8 5258   1.406   7.703   9.272 -0.0414 -0.5561 -0.2537
  527DECAN   C9 5259   1.457   7.745   9.133 -0.3851 -0.0575 -0.2336
  527DECAN  C10 5260   1.468   7.628   9.034 -0.6122 -0.2270 -0.0583
  528DECAN   C1 5261   8.711   2.523   8.930 -0.1463 -0.4079 -0.3956
  528DECAN   C2 5262   8.761   2.624   8.825  0.2319 -0.2270 -0.0442
  528DECAN   C3 5263   8.714   2.590   8.683  0.0586  0.3360 -0.1240
  528DECAN   C4 5264   8.791   2.669   8.575 -0.1506  0.3212 -0.2850
  528DECAN   C5 5265   8.762   2.820   8.589  0.1493  0.3755 -0.2396
  528DECAN   C6 5266   8.799   2.885   8.723  0.5220  0.4431 -0.3733
  528DECAN   C7 5267   8.830   3.034   8.700 -0.0081  0.5798 -0.2161
  528DECAN   C8 5268   8.819   3.089   8.843 -0.2214 -0.0657  0.0208
  528DECAN   C9 5269   8.811   3.241   8.865 -0.1589 -0.0592 -0.0018
  528DECAN  C10 5270   8.929   3.324   8.809 -0.3428  0.1585 -0.0717
  529DECAN   C1 5271  10.344   6.222  13.130 -0.4978 -0.7235 -0.7972
  529DECAN   C2 5272  10.364   6.362  13.068  0.3142 -0.3497  0.2821
  529DECAN   C3 5273  10.498   6.433  13.091  0.3959 -0.3378 -0.2308
  529DECAN   C4 5274  10.499   6.575  13.030  0.0930 -0.2862 -0.1182
  529DECAN   C5 5275  10.630   6.652  13.056  0.1300 -0.2864 -0.3004
  529DECAN   C6 5276  10.676   6.766  12.964 -0.1118 -0.1913 -0.3034
  529DECAN   C7 5277  10.665   6.713  12.819 -0.3534 -0.0979 -0.3203
  529DECAN   C8 5278  10.706   6.808  12.705 -0.0929  0.3073  0.1043
  529DECAN   C9 5279  10.594   6.912  12.682 -0.2927  0.0912  0.0940
  529DECAN  C10 5280  10.605   7.001  12.557 -0.9225 -0.2100 -0.1796
  530DECAN   C1 5281  10.480   8.872  12.207 -0.0154 -0.3919 -0.4201
  530DECAN   C2 5282  10.340   8.936  12.198 -0.0262 -0.3394  0.0801
  530DECAN   C3 5283  10.300   9.048  12.295 -0.1187 -0.0986 -0.2337
  530DECAN   C4 5284  10.275   9.000  12.440 -0.1875  0.5448 -0.0280
  530DECAN   C5 5285  10.164   8.895  12.461  0.5414 -0.1529  0.3786
  530DECAN   C6 5286  10.021   8.948  12.476  0.6954  0.3415  0.1166
  530DECAN   C7 5287  10.008   9.065  12.576  0.3150 -0.0188  0.4954
  530DECAN   C8 5288   9.876   9.144  12.579  0.2246 -0.1607  0.2658
  530DECAN   C9 5289   9.758   9.055  12.623  0.2276 -0.2452  0.1060
  530DECAN  C10 5290   9.622   9.125  12.608  0.4998  0.2007 -0.3284
  531DECAN   C1 5291   3.530   1.847   4.207  0.1575  0.0023  0.1787
  531DECAN   C2 5292   3.390   1.806   4.157 -0.0983  0.4609  0.5173
  531DECAN   C3 5293   3.300   1.744   4.266 -0.2730  0.0379  0.1357
  531DECAN   C4 5294   3.151   1.737   4.228 -0.2982  0.6242  0.1052
  531DECAN   C5 5295   3.057   1.669   4.330  0.0264 -0.2126 -0.1466
  531DECAN   C6 5296   2.905   1.682   4.311  0.0091 -0.7584 -0.3942
  531DECAN   C7 5297   2.824   1.675   4.442  0.5425 -0.5736 -0.0493
  531DECAN   C8 5298   2.849   1.796   4.533  0.2098 -0.1447 -0.5266
  531DECAN   C9 5299   2.796   1.932   4.483  0.5064 -0.1221 -0.7774
  531DECAN  C10 5300   2.800   2.046   4.587 -0.2774  0.0215 -0.9020
  532DECAN   C1 5301   3.615   2.306  14.556  0.0938  0.3695  0.3358
  532DECAN   C2 5302   3.641   2.423  14.460  0.3358  0.0146 -0.0382
  532DECAN   C3 5303   3.696   2.545  14.536  0.7667 -0.5957  0.6399
  532DECAN   C4 5304   3.741   2.668  14.455 -0.1250 -0.4219  0.3941
  532DECAN   C5 5305   3.808   2.774  14.545  0.5832 -0.5779  0.0619
  532DECAN   C6 5306   3.839   2.909  14.478 -0.1713 -0.4928 -0.1311
  532DECAN   C7 5307   3.904   3.022  14.561  0.3501 -0.5151 -0.5020
  532DECAN   C8 5308   3.912   3.156  14.485  0.2058 -0.0256  0.3378
  532DECAN   C9 5309   4.017   3.261  14.526  0.2697  0.0484 -0.0156
  532DECAN  C10 5310   3.997   3.338  14.657  0.3265  0.0855 -0.0287
  533DECAN   C1 5311   9.950   7.630  12.353 -0.4397  0.0082 -0.1055
  533DECAN   C2 5312   9.924   7.699  12.488 -0.3367 -0.0211 -0.0704
  533DECAN   C3 5313   9.775   7.733  12.508 -0.2621  0.0437  0.3678
  533DECAN   C4 5314   9.691   7.605  12.528 -0.2427 -0.0968 -0.4153
  533DECAN   C5 5315   9.677   7.526  12.397 -0.5161 -0.2800 -0.2752
  533DECAN   C6 5316   9.634   7.378  12.409  0.4762 -0.5135  0.5513
  533DECAN   C7 5317   9.671   7.303  12.280 -0.7336 -0.2295  0.0236
  533DECAN   C8 5318   9.625   7.157  12.292 -0.3854 -0.4034 -0.6885
  533DECAN   C9 5319   9.656   7.058  12.178  1.1020 -0.1803 -0.5059
  533DECAN  C10 5320   9.566   6.933  12.181 -0.1075  0.6531 -1.1676
  534DECAN   C1 5321   2.793   6.433  12.952  0.5460  0.3324  0.1787
  534DECAN   C2 5322   2.836   6.558  12.874  0.8450  0.1163 -0.0059
  534DECAN   C3 5323   2.741   6.678  12.896  0.6560  0.0614 -0.5073
  534DECAN   C4 5324   2.610   6.634  12.828  0.4980 -0.4096  0.0896
  534DECAN   C5 5325   2.516   6.756  12.833  0.2152 -0.6177 -0.1037
  534DECAN   C6 5326   2.408   6.772  12.725  0.0203  0.0252  0.1777
  534DECAN   C7 5327   2.478   6.782  12.588  0.0089 -0.7773  0.1045
  534DECAN   C8 5328   2.384   6.771  12.466 -0.0052  0.1231  0.0250
  534DECAN   C9 5329   2.451   6.816  12.335  0.6299 -0.1006  0.2673
  534DECAN  C10 5330   2.353   6.794  12.218  0.0409 -0.0507  0.7459
  535DECAN   C1 5331   3.125   9.523  12.753 -0.0405 -0.1888  0.2101
  535DECAN   C2 5332   3.148   9.397  12.667 -0.0256  0.0711 -0.1722
  535DECAN   C3 5333   3.037   9.292  12.682  0.0135  0.0820  0.1937
  535DECAN   C4 5334   2.902   9.358  12.649 -0.1731 -0.0392  0.6912
  535DECAN   C5 5335   2.790   9.252  12.654  0.4099 -0.6665  0.5962
  535DECAN   C6 5336   2.760   9.202  12.797  0.1893 -0.8105  0.5008
  535DECAN   C7 5337   2.646   9.099  12.790 -0.6663  0.1608 -0.1299
  535DECAN   C8 5338   2.615   9.043  12.930 -0.2140  0.8070  0.2351
  535DECAN   C9 5339   2.745   8.993  12.997 -0.0956  0.6467 -0.1122
  535DECAN  C10 5340   2.717   8.985  13.148  0.6381  0.6877  0.0261
  536DECAN   C1 5341   3.756   5.222  12.726  0.0132 -0.2044  0.0032
  536DECAN   C2 5342   3.791   5.210  12.875 -0.1539  0.1177  0.0698
  536DECAN   C3 5343   3.923   5.133  12.899 -0.2269  0.0228  0.1685
  536DECAN   C4 5344   3.962   5.091  13.042  0.5913  0.0804 -0.0360
  536DECAN   C5 5345   4.097   5.022  13.067  0.2329 -0.5425  0.1809
  536DECAN   C6 5346   4.154   5.040  13.208 -0.2714 -0.5569  0.3873
  536DECAN   C7 5347   4.283   4.958  13.229 -0.2039 -0.5290  0.0777
  536DECAN   C8 5348   4.370   4.964  13.102  0.4407 -0.2593  0.5257
  536DECAN   C9 5349   4.442   5.097  13.075  0.5185 -0.3343  0.3634
  536DECAN  C10 5350   4.547   5.106  12.962 -0.4138 -0.4369 -0.5229
  537DECAN   C1 5351   7.197   0.904  14.097  0.3700 -0.3057  0.0387
  537DECAN   C2 5352   7.136   0.921  13.957 -0.0418 -0.4701  0.1963
  537DECAN   C3 5353   7.231   0.879  13.843 -0.1710  0.3282 -0.2101
  537DECAN   C4 5354   7.186   0.892  13.696 -0.4274  0.5184 -0.1163
  537DECAN   C5 5355   7.175   1.031  13.631  0.1218  0.6401  0.0449
  537DECAN   C6 5356   7.046   1.109  13.661  0.0725  0.6656 -0.2279
  537DECAN   C7 5357   6.967   1.150  13.535 -0.4294  0.5102  0.0307
  537DECAN   C8 5358   7.041   1.248  13.442 -0.0793  0.0316 -0.1992
  537DECAN   C9 5359   6.941   1.314  13.347  0.1733  0.1955 -0.3534
  537DECAN  C10 5360   6.866   1.217  13.254  0.1226 -0.4055  0.3092
  538DECAN   C1 5361   8.801   7.963   8.237 -0.6438  0.0338 -0.0344
  538DECAN   C2 5362   8.734   7.837   8.181  0.3985 -0.3604 -0.4216
  538DECAN   C3 5363   8.776   7.715   8.266  0.4541  0.0221  0.1045
  538DECAN   C4 5364   8.730   7.741   8.411 -0.7232 -0.2323 -0.2105
  538DECAN   C5 5365   8.750   7.613   8.494  0.1727  0.0482  0.0097
  538DECAN   C6 5366   8.700   7.650   8.635  0.1640 -0.6092  0.1851
  538DECAN   C7 5367   8.547   7.660   8.645  0.1848  0.2953 -0.2477
  538DECAN   C8 5368   8.496   7.788   8.576 -0.3638  0.2087 -0.0032
  538DECAN   C9 5369   8.342   7.789   8.571 -0.3497  0.0878 -0.5516
  538DECAN  C10 5370   8.283   7.872   8.456 -0.2630  0.5663 -0.2548
  539DECAN   C1 5371   2.959   0.318  11.197  0.2072  0.5563 -0.2675
  539DECAN   C2 5372   2.899   0.427  11.289  0.4204  0.1516  0.3532
  539DECAN   C3 5373   2.981   0.556  11.303  0.1510  0.3294  0.2867
  539DECAN   C4 5374   2.898   0.681  11.339 -0.9475 -0.2745 -0.1216
  539DECAN   C5 5375   2.975   0.807  11.381 -0.6007 -0.4578 -0.2057
  539DECAN   C6 5376   2.875   0.917  11.420 -0.1222 -0.1104  0.0618
  539DECAN   C7 5377   2.788   0.976  11.307 -0.2691 -0.0134  0.2248
  539DECAN   C8 5378   2.728   1.115  11.333 -0.0762  0.0924  0.1050
  539DECAN   C9 5379   2.669   1.176  11.205 -0.4061  0.0716  0.2460
  539DECAN  C10 5380   2.585   1.068  11.133 -0.0556 -0.0304 -0.0133
  540DECAN   C1 5381  10.697   9.973   6.229 -0.0380 -0.0219 -0.2753
  540DECAN   C2 5382  10.579  10.053   6.172 -0.3094 -0.3879 -0.2349
  540DECAN   C3 5383  10.519  10.170   6.252  0.1270 -0.1188 -0.2980
  540DECAN   C4 5384  10.427  10.268   6.176  0.3579  0.2114 -0.1583
  540DECAN   C5 5385  10.349  10.348   6.282  0.3712  0.2186 -0.1544
  540DECAN   C6 5386  10.274  10.466   6.217 -0.6737 -0.8230 -0.8913
  540DECAN   C7 5387  10.185  10.545   6.315  0.2785 -0.9315  0.0799
  540DECAN   C8 5388  10.035  10.513   6.299  0.0765 -0.0571  0.1901
  540DECAN   C9 5389  10.004  10.368   6.343 -0.2642 -0.0747 -0.1033
  540DECAN  C10 5390   9.866  10.306   6.317 -0.6146  0.6842 -0.0937
  541DECAN   C1 5391   9.448   1.865   6.561 -0.1785 -0.8463  0.5525
  541DECAN   C2 5392   9.363   1.873   6.433  0.3026  0.1846  0.2861
  541DECAN   C3 5393   9.226   1.939   6.454  0.0939 -0.0734 -0.2554
  541DECAN   C4 5394   9.184   2.058   6.366  0.6431  0.1469 -0.2233
  541DECAN   C5 5395   9.053   2.121   6.418  0.7667  0.1614  0.0764
  541DECAN   C6 5396   9.042   2.266   6.367  0.4785  0.2555  0.4008
  541DECAN   C7 5397   8.956   2.363   6.450  0.3231 -0.0356  0.5828
  541DECAN   C8 5398   8.972   2.507   6.397  0.0155 -0.1213  0.2489
  541DECAN   C9 5399   8.985   2.604   6.516 -0.1460  0.0306  0.1414
  541DECAN  C10 5400   8.994   2.753   6.477  0.2482 -0.0905 -0.2302
  542DECAN   C1 5401   6.268   2.662  13.695  0.3036 -0.2879  0.4218
  542DECAN   C2 5402   6.281   2.762  13.812 -0.0698 -0.1475  0.3422
  542DECAN   C3 5403   6.347   2.898  13.785  0.5007 -0.5138 -0.1310
  542DECAN   C4 5404   6.333   3.004  13.896 -0.3010 -0.7549  0.0005
  542DECAN   C5 5405   6.404   2.965  14.027 -0.4734  0.9570  0.6243
  542DECAN   C6 5406   6.556   2.961  14.002 -0.6214  0.1723 -0.2105
  542DECAN   C7 5407   6.620   3.100  13.981  0.0082 -0.0559  0.1759
  542DECAN   C8 5408   6.773   3.085  13.973  0.0486  0.3520  0.1506
  542DECAN   C9 5409   6.858   3.212  13.991 -0.1889  0.5739 -0.2936
  542DECAN  C10 5410   7.009   3.182  13.990 -0.0949  1.0261 -0.1024
  543DECAN   C1 5411   5.047  10.368   7.162  0.2727 -0.0908 -0.2467
  543DECAN   C2 5412   5.172  10.452   7.192  0.0900  0.0044  0.2446
  543DECAN   C3 5413   5.145  10.597   7.146  0.4249  0.0817  0.2851
  543DECAN   C4 5414   5.097  10.618   7.001 -0.5940 -0.3616  0.5440
  543DECAN   C5 5415   5.073  10.762   6.953  0.2221 -0.3517  0.1434
  543DECAN   C6 5416   5.191  10.855   6.985 -0.1525  0.0657  0.3272
  543DECAN   C7 5417   5.162  11.001   6.948 -0.2772 -0.1140 -0.2921
  543DECAN   C8 5418   5.206  11.042   6.806 -0.0079  0.0535 -0.1622
  543DECAN   C9 5419   5.182  11.188   6.765  0.6803  0.1987 -0.0661
  543DECAN  C10 5420   5.267   0.046   6.843  0.5090 -0.1680  0.6082
  544DECAN   C1 5421   1.727   5.737  13.807  0.0390  0.3659  0.0350
  544DECAN   C2 5422   1.772   5.884  13.807  0.1317  0.3412  0.8082
  544DECAN   C3 5423   1.718   5.965  13.687 -0.3706 -0.0195  0.7912
  544DECAN   C4 5424   1.782   6.104  13.698 -0.5497  0.0898  0.4465
  544DECAN   C5 5425   1.722   6.223  13.620 -0.2306  0.4100  0.6869
  544DECAN   C6 5426   1.796   6.357  13.605 -0.4274  0.4244 -0.1856
  544DECAN   C7 5427   1.891   6.364  13.483 -0.1344 -0.5226 -0.0244
  544DECAN   C8 5428   2.014   6.272  13.485  0.2126 -0.0631  0.0798
  544DECAN   C9 5429   2.084   6.243  13.350 -0.3255 -0.2006 -0.1739
  544DECAN  C10 5430   2.186   6.129  13.340  0.1033  0.1359  0.3063
  545DECAN   C1 5431   8.448   0.731   7.434  0.5417  0.0935  0.6436
  545DECAN   C2 5432   8.368   0.600   7.451  0.5310 -0.0229 -0.2482
  545DECAN   C3 5433   8.432   0.499   7.548  0.3193 -0.1940 -0.2859
  545DECAN   C4 5434   8.352   0.369   7.565  0.0313  0.0675  0.3960
  545DECAN   C5 5435   8.434   0.251   7.622  0.3577  0.1961  0.1918
  545DECAN   C6 5436   8.563   0.218   7.543  0.0204 -0.1084 -0.2347
  545DECAN   C7 5437   8.626   0.080   7.570  0.2120  0.1488  0.6531
  545DECAN   C8 5438   8.777   0.068   7.541  0.0410 -0.9409  0.1654
  545DECAN   C9 5439   8.812   0.131   7.406 -0.2518  0.1487  0.5845
  545DECAN  C10 5440   8.757   0.274   7.390 -0.2133  0.0546 -0.4958
  546DECAN   C1 5441  10.236   9.932  13.839 -0.3187  0.0401 -0.1036
  546DECAN   C2 5442  10.353   9.862  13.768  0.2260 -0.1872  1.0069
  546DECAN   C3 5443  10.469   9.963  13.751 -0.0940 -0.0129 -0.2101
  546DECAN   C4 5444  10.435  10.074  13.650 -0.4542  0.2963  0.2432
  546DECAN   C5 5445  10.505  10.210  13.668 -0.1052  0.1162  0.2497
  546DECAN   C6 5446  10.456  10.334  13.591  0.4317 -0.1525 -0.5424
  546DECAN   C7 5447  10.466  10.305  13.440 -0.3838 -0.4250 -0.5483
  546DECAN   C8 5448  10.425  10.157  13.424 -0.6394 -0.4302  0.0921
  546DECAN   C9 5449  10.460  10.121  13.278 -0.0775 -0.2072  0.1672
  546DECAN  C10 5450  10.381   9.996  13.233 -0.1570  0.0313 -0.3582
  547DECAN   C1 5451   2.874   5.651   5.861  0.2817 -0.1898  0.1257
  547DECAN   C2 5452   2.790   5.727   5.965  0.1910  0.1841 -0.2178
  547DECAN   C3 5453   2.652   5.769   5.911 -0.0657 -0.0844  0.2219
  547DECAN   C4 5454   2.559   5.850   6.003 -0.1722 -0.1321  0.1568
  547DECAN   C5 5455   2.413   5.871   5.962 -0.0416 -0.3293 -0.4206
  547DECAN   C6 5456   2.342   5.987   6.036  0.1775 -0.2451 -0.3424
  547DECAN   C7 5457   2.273   5.924   6.159  0.1315 -0.0774 -0.2822
  547DECAN   C8 5458   2.173   6.000   6.247  0.4808  0.0284  0.0256
  547DECAN   C9 5459   2.107   5.919   6.360  0.4406 -0.1982 -0.1607
  547DECAN  C10 5460   2.022   6.021   6.436  0.4006 -0.3467 -0.0053
  548DECAN   C1 5461  10.103   2.795   8.411  0.3743 -0.3467 -0.5441
  548DECAN   C2 5462  10.173   2.932   8.415 -0.1477 -0.1001  0.4910
  548DECAN   C3 5463  10.259   2.962   8.290 -0.7698 -0.0466  0.0722
  548DECAN   C4 5464  10.211   3.065   8.187 -0.1674 -0.3805 -0.5474
  548DECAN   C5 5465  10.329   3.111   8.099  0.1727 -0.3339 -0.0678
  548DECAN   C6 5466  10.322   3.247   8.029  0.0067 -0.2381  0.1343
  548DECAN   C7 5467  10.336   3.362   8.130 -0.1251 -0.2099  0.1201
  548DECAN   C8 5468  10.325   3.507   8.080  0.5524 -0.0569  0.3969
  548DECAN   C9 5469  10.332   3.623   8.181  0.3987  0.3484 -0.0522
  548DECAN  C10 5470  10.188   3.667   8.218  0.2563 -0.3930  0.2969
  549DECAN   C1 5471   4.751   5.613  14.555 -0.4722 -0.2492 -0.1852
  549DECAN   C2 5472   4.773   5.743  14.477 -0.1219  0.0390  0.3881
  549DECAN   C3 5473   4.851   5.849  14.558  0.1346  0.1854 -0.0430
  549DECAN   C4 5474   4.849   5.991  14.498 -0.2295  0.0981 -0.2411
  549DECAN   C5 5475   4.949   6.084  14.569  0.1457 -0.1072 -0.4927
  549DECAN   C6 5476   4.919   6.229  14.528  0.0245 -0.0632 -0.2555
  549DECAN   C7 5477   5.036   6.324  14.559 -0.3606  0.1471  0.5768
  549DECAN   C8 5478   5.004   6.471  14.526 -0.1735  0.0527 -0.0460
  549DECAN   C9 5479   5.098   6.586  14.568  0.0207 -0.1508  0.0776
  549DECAN  C10 5480   5.217   6.609  14.473 -0.2578  0.4944 -0.1202
  550DECAN   C1 5481   6.179   1.389  10.504 -0.1762 -0.1759  0.1045
  550DECAN   C2 5482   6.103   1.520  10.527  0.0497 -0.2051  1.0192
  550DECAN   C3 5483   5.952   1.504  10.553 -0.1100  0.1071  0.2983
  550DECAN   C4 5484   5.933   1.428  10.685  0.4811 -0.8120 -0.1335
  550DECAN   C5 5485   5.786   1.400  10.720  0.4395 -0.1354  0.2557
  550DECAN   C6 5486   5.714   1.297  10.630  0.4870 -0.3147  0.4214
  550DECAN   C7 5487   5.564   1.335  10.621  0.5388 -0.2004  0.0089
  550DECAN   C8 5488   5.497   1.226  10.536  0.4312 -0.4016  0.3497
  550DECAN   C9 5489   5.549   1.208  10.392 -0.0894  0.3023  0.0684
  550DECAN  C10 5490   5.492   1.081  10.326  0.3137  0.1244  0.0570
  551DECAN   C1 5491   6.917   5.564   9.929 -0.0649 -0.1692  0.5123
  551DECAN   C2 5492   6.786   5.572   9.848  0.3225 -0.0726 -0.1106
  551DECAN   C3 5493   6.668   5.509   9.923  0.3092  0.2916  0.1763
  551DECAN   C4 5494   6.625   5.577  10.055 -0.4026  0.5380 -0.1766
  551DECAN   C5 5495   6.492   5.521  10.108 -0.0237 -0.3279 -0.1211
  551DECAN   C6 5496   6.492   5.372  10.148 -0.7392 -0.2888  0.0456
  551DECAN   C7 5497   6.616   5.338  10.234  0.0070  0.2548 -0.7901
  551DECAN   C8 5498   6.624   5.185  10.242  0.1072  0.2671 -0.6576
  551DECAN   C9 5499   6.742   5.128  10.322 -0.3886 -0.3967 -0.3864
  551DECAN  C10 5500   6.765   4.977  10.299  0.3875 -0.2954 -0.3205
  552DECAN   C1 5501   5.986   1.558   9.895 -0.2227  0.0219  0.1544
  552DECAN   C2 5502   5.851   1.529   9.964 -0.3996  0.5353  0.0306
  552DECAN   C3 5503   5.766   1.647  10.014 -0.6082  0.3996 -0.0017
  552DECAN   C4 5504   5.818   1.746  10.120  0.2603  0.4263 -0.4424
  552DECAN   C5 5505   5.954   1.809  10.084  0.4599  0.3440  0.1514
  552DECAN   C6 5506   5.975   1.939  10.164 -0.0706  0.4922  0.0521
  552DECAN   C7 5507   6.006   1.913  10.313 -0.5006  0.0200  0.0598
  552DECAN   C8 5508   6.073   2.029  10.387 -1.1468  0.4111  0.0445
  552DECAN   C9 5509   6.099   1.973  10.528  0.0831  0.1314 -0.2766
  552DECAN  C10 5510   6.150   2.080  10.626 -0.1197  0.0617 -0.0927
  553DECAN   C1 5511   4.535   0.249  10.774  0.1690 -0.2261 -0.3288
  553DECAN   C2 5512   4.597   0.367  10.851 -0.0124 -0.4763  0.2082
  553DECAN   C3 5513   4.626   0.357  11.002  0.4233  0.4364  0.1875
  553DECAN   C4 5514   4.498   0.322  11.079  0.0775  0.7128 -0.2557
  553DECAN   C5 5515   4.523   0.292  11.228 -0.0042 -0.0156 -0.3881
  553DECAN   C6 5516   4.394   0.223  11.276  0.1571 -0.3544 -0.4326
  553DECAN   C7 5517   4.401   0.167  11.420 -0.1854  0.4263 -0.1039
  553DECAN   C8 5518   4.264   0.108  11.458  0.1838 -0.8569 -0.7181
  553DECAN   C9 5519   4.273  11.239  11.563  0.2787  0.4873  0.7569
  553DECAN  C10 5520   4.131  11.203  11.612  0.2572 -0.1797  0.2154
  554DECAN   C1 5521   4.845   6.586   6.762 -0.3438 -0.7385  0.7025
  554DECAN   C2 5522   4.733   6.671   6.825  0.1967  0.2345  0.3728
  554DECAN   C3 5523   4.587   6.625   6.818  0.1561  0.3368  0.5383
  554DECAN   C4 5524   4.500   6.683   6.705  0.7820 -1.0953 -0.7114
  554DECAN   C5 5525   4.367   6.615   6.668 -0.1925  0.0643  0.5277
  554DECAN   C6 5526   4.264   6.695   6.587  0.2057  0.1559  0.1066
  554DECAN   C7 5527   4.328   6.737   6.453 -0.0901  0.1668 -0.0322
  554DECAN   C8 5528   4.336   6.619   6.354 -0.0250 -0.2129  0.4236
  554DECAN   C9 5529   4.366   6.652   6.207  0.0564 -0.1251  0.4597
  554DECAN  C10 5530   4.366   6.528   6.115  0.5151 -0.4035  0.8311
  555DECAN   C1 5531  10.097   9.380  11.612 -0.4494  0.7117 -0.4162
  555DECAN   C2 5532  10.207   9.370  11.505  0.0461  0.2283  0.1312
  555DECAN   C3 5533  10.186   9.473  11.392 -0.1114 -0.0671 -0.1087
  555DECAN   C4 5534  10.284   9.467  11.274  0.0692  0.7558 -0.0027
  555DECAN   C5 5535  10.221   9.535  11.151  0.0067  0.0531 -0.3616
  555DECAN   C6 5536  10.322   9.553  11.036 -0.1071 -0.0983 -0.4872
  555DECAN   C7 5537  10.360   9.419  10.971  0.2937 -0.2025 -0.0399
  555DECAN   C8 5538  10.403   9.432  10.823 -0.2434  0.3146 -0.1536
  555DECAN   C9 5539  10.502   9.325  10.774 -0.5870  0.3310 -0.8904
  555DECAN  C10 5540  10.420   9.194  10.766  0.1130 -0.1804  0.1606
  556DECAN   C1 5541   3.952   0.384   4.084  0.0691 -0.2356  0.4835
  556DECAN   C2 5542   3.981   0.530   4.122  0.7007 -0.2136 -0.0518
  556DECAN   C3 5543   4.000   0.626   4.003 -0.5055 -0.0286 -0.1108
  556DECAN   C4 5544   4.063   0.761   4.045 -0.0246 -0.0971 -0.5968
  556DECAN   C5 5545   4.215   0.761   4.071 -0.1967  0.1765  0.4346
  556DECAN   C6 5546   4.273   0.901   4.101  0.1379  0.1490 -0.0791
  556DECAN   C7 5547   4.425   0.906   4.123  0.1223 -0.0585  0.0848
  556DECAN   C8 5548   4.511   0.917   3.996  0.4496 -0.8258  0.2337
  556DECAN   C9 5549   4.662   0.943   4.019  0.3735 -0.0779 -0.0596
  556DECAN  C10 5550   4.748   0.956   3.892 -0.2575 -0.1315 -0.5016
  557DECAN   C1 5551   9.492   9.951   8.481  0.2076 -0.2817 -0.0363
  557DECAN   C2 5552   9.588   9.911   8.368  0.2994  0.0055 -0.0603
  557DECAN   C3 5553   9.604  10.008   8.249  0.4506 -0.0527 -0.0880
  557DECAN   C4 5554   9.716   9.975   8.149  0.4735  0.1455 -0.1272
  557DECAN   C5 5555   9.743   9.823   8.141 -0.1777  0.0359 -0.2817
  557DECAN   C6 5556   9.832   9.789   8.020  0.1635 -0.2949  0.0633
  557DECAN   C7 5557   9.863   9.638   8.012  0.5400 -0.2592  0.7521
  557DECAN   C8 5558   9.761   9.569   7.920  0.3946  0.0931  0.6484
  557DECAN   C9 5559   9.723   9.425   7.959 -0.6596  0.1935  0.0585
  557DECAN  C10 5560   9.644   9.397   8.088 -0.4611  0.6226  0.2768
  558DECAN   C1 5561   4.198   2.324  12.618  0.1025 -0.3281 -0.2566
  558DECAN   C2 5562   4.259   2.299  12.757 -0.2395  0.9703  0.1431
  558DECAN   C3 5563   4.391   2.375  12.779  0.3962 -0.0747 -0.0036
  558DECAN   C4 5564   4.504   2.345  12.678  0.4092  0.4656 -0.1547
  558DECAN   C5 5565   4.647   2.388  12.713  0.4518  0.3530 -0.1898
  558DECAN   C6 5566   4.659   2.535  12.758 -0.0956  0.3729 -0.1077
  558DECAN   C7 5567   4.794   2.567  12.824 -0.3346 -0.3492  0.7446
  558DECAN   C8 5568   4.807   2.711  12.876  0.2675 -0.1572  0.0824
  558DECAN   C9 5569   4.937   2.729  12.956  0.2736  0.0174  0.0331
  558DECAN  C10 5570   4.929   2.632  13.076  0.6748 -0.6026 -0.4368
  559DECAN   C1 5571   5.105   3.364  12.220  0.3600 -0.1574 -0.2292
  559DECAN   C2 5572   5.158   3.255  12.315 -0.1762 -0.3214 -0.1161
  559DECAN   C3 5573   5.258   3.161  12.244  0.0896 -0.1365  0.0111
  559DECAN   C4 5574   5.340   3.071  12.339  0.3705 -0.0617 -0.1584
  559DECAN   C5 5575   5.382   2.946  12.260  0.4443  0.2854 -0.6781
  559DECAN   C6 5576   5.479   2.858  12.341 -0.2243  0.2808  0.1323
  559DECAN   C7 5577   5.538   2.739  12.263 -1.0081  0.0180 -0.0706
  559DECAN   C8 5578   5.632   2.648  12.344 -0.0830  0.5002 -0.5770
  559DECAN   C9 5579   5.692   2.528  12.269 -0.1724 -0.0149  0.1612
  559DECAN  C10 5580   5.807   2.446  12.332  0.3205  0.4195 -0.1649
  560DECAN   C1 5581   2.853   6.653   3.846 -0.5746 -0.2320  0.1825
  560DECAN   C2 5582   2.862   6.680   3.998 -0.1898 -0.2927  0.1703
  560DECAN   C3 5583   2.997   6.640   4.062  0.1113  0.2237 -0.1339
  560DECAN   C4 5584   3.008   6.654   4.214  0.4741  0.0741 -0.1475
  560DECAN   C5 5585   3.143   6.616   4.279  0.2393 -0.0095  0.2940
  560DECAN   C6 5586   3.198   6.473   4.264  0.1236 -0.0279  0.0427
  560DECAN   C7 5587   3.130   6.368   4.352  0.0053  0.0751  0.0738
  560DECAN   C8 5588   3.200   6.231   4.362  0.2014  0.1571 -0.1637
  560DECAN   C9 5589   3.147   6.131   4.467  0.2125 -0.0644 -0.3683
  560DECAN  C10 5590   2.993   6.121   4.458  0.1829 -0.3677  0.4178
  561DECAN   C1 5591   6.986   7.294   9.420 -0.2265  0.0096  0.1193
  561DECAN   C2 5592   7.030   7.348   9.558 -0.0440 -0.2959  0.1833
  561DECAN   C3 5593   7.117   7.275   9.662 -0.3838 -0.4645  0.3503
  561DECAN   C4 5594   7.090   7.124   9.669 -0.4827 -0.4331  0.6386
  561DECAN   C5 5595   7.133   7.051   9.541  0.0932  1.0005 -0.0078
  561DECAN   C6 5596   7.287   7.055   9.539  0.1375 -0.0921  0.3241
  561DECAN   C7 5597   7.337   7.199   9.520 -0.3737 -0.0077 -0.4321
  561DECAN   C8 5598   7.491   7.190   9.526 -0.3600  0.2466 -0.3580
  561DECAN   C9 5599   7.566   7.319   9.563  0.4498 -0.3128 -0.0138
  561DECAN  C10 5600   7.579   7.365   9.709  0.0769  0.6241 -0.2657
  562DECAN   C1 5601   6.463   7.408   8.265 -0.3215  0.2891 -0.4637
  562DECAN   C2 5602   6.406   7.317   8.155 -0.0405 -0.0520 -0.3272
  562DECAN   C3 5603   6.296   7.374   8.063  0.0944  0.1240 -0.3808
  562DECAN   C4 5604   6.242   7.278   7.956  0.0721  0.0843 -0.3337
  562DECAN   C5 5605   6.117   7.333   7.884 -0.0491  0.4246  0.1307
  562DECAN   C6 5606   5.990   7.355   7.968 -0.2029 -0.4920  0.1463
  562DECAN   C7 5607   5.879   7.436   7.898  0.6675  0.2151 -0.4448
  562DECAN   C8 5608   5.804   7.359   7.787 -0.3715  0.2831  0.1969
  562DECAN   C9 5609   5.747   7.223   7.833  0.8626 -0.5047 -0.5285
  562DECAN  C10 5610   5.675   7.138   7.727  0.1754 -0.2124 -0.3072
  563DECAN   C1 5611   2.027   1.741   8.473 -0.0849 -0.4460  0.0719
  563DECAN   C2 5612   2.024   1.833   8.597 -0.5205 -0.6948  0.2457
  563DECAN   C3 5613   1.994   1.770   8.735  0.2884 -0.6449  0.4484
  563DECAN   C4 5614   1.998   1.882   8.841 -0.1673  0.1232 -0.3319
  563DECAN   C5 5615   1.876   1.972   8.816 -0.1708  0.2289  0.0537
  563DECAN   C6 5616   1.875   2.041   8.678 -0.2005 -0.2244 -0.1785
  563DECAN   C7 5617   1.780   2.162   8.671 -0.3958 -0.3582  0.1375
  563DECAN   C8 5618   1.784   2.230   8.533 -0.5116 -0.3058  0.1602
  563DECAN   C9 5619   1.693   2.354   8.527  0.2097  0.2357  0.4141
  563DECAN  C10 5620   1.695   2.428   8.391  0.0568 -0.6642 -0.0842
  564DECAN   C1 5621   7.256   2.424   8.773 -0.1235  0.3287 -0.4553
  564DECAN   C2 5622   7.123   2.423   8.851 -0.1615  0.2641 -0.5207
  564DECAN   C3 5623   7.002   2.362   8.777  0.3662 -0.6455 -0.6525
  564DECAN   C4 5624   7.013   2.209   8.771 -0.0820 -0.6987 -0.1718
  564DECAN   C5 5625   7.016   2.145   8.911 -0.2260  0.0024  0.1548
  564DECAN   C6 5626   7.040   1.994   8.895 -0.1635  0.0063  0.2129
  564DECAN   C7 5627   7.083   1.916   9.021 -0.0038  0.0837  0.2055
  564DECAN   C8 5628   7.182   1.802   8.989  0.1579  0.1246  0.5550
  564DECAN   C9 5629   7.228   1.715   9.108  0.2470 -0.3066  0.2098
  564DECAN  C10 5630   7.282   1.579   9.062  0.0706 -0.2442 -0.1897
  565DECAN   C1 5631   3.744  10.954   6.227 -0.1760 -0.3799 -0.1564
  565DECAN   C2 5632   3.732  11.039   6.355  0.2191 -0.0065 -0.3650
  565DECAN   C3 5633   3.874  11.054   6.413  0.0682  0.3355 -0.0807
  565DECAN   C4 5634   3.880  11.177   6.506  0.7044  0.2870 -0.0499
  565DECAN   C5 5635   4.017  11.204   6.569  0.4268 -0.3488  0.8447
  565DECAN   C6 5636   4.117  11.222   6.453 -0.3711  0.3569  0.2550
  565DECAN   C7 5637   4.256  11.230   6.520 -0.0978 -0.3357 -0.2171
  565DECAN   C8 5638   4.384  11.244   6.436 -0.2555  0.8031 -0.2875
  565DECAN   C9 5639   4.426  11.112   6.368  0.2246  0.5089  0.5676
  565DECAN  C10 5640   4.540  11.131   6.267  0.0692 -0.0964  0.2742
  566DECAN   C1 5641   4.071  10.207   9.431  0.4142 -0.5209  0.4156
  566DECAN   C2 5642   4.103  10.126   9.303  0.0920  1.2923 -0.8435
  566DECAN   C3 5643   3.995  10.127   9.193 -0.3315 -0.1246 -0.4579
  566DECAN   C4 5644   3.849  10.111   9.241 -0.0488  0.1733  0.5221
  566DECAN   C5 5645   3.740  10.102   9.133 -0.1995  0.1989  0.6716
  566DECAN   C6 5646   3.602  10.042   9.166 -0.1276 -0.6635 -0.5082
  566DECAN   C7 5647   3.503  10.055   9.049 -0.5021  0.0315 -0.1221
  566DECAN   C8 5648   3.462  10.199   9.013 -0.4322  0.0472 -0.1381
  566DECAN   C9 5649   3.371  10.200   8.889  0.1370  0.0912 -0.5585
  566DECAN  C10 5650   3.433  10.135   8.764  0.1827 -0.4488 -0.2541
  567DECAN   C1 5651   2.596   9.546  11.425  0.1666 -0.0334 -0.1131
  567DECAN   C2 5652   2.507   9.603  11.313  0.1928 -0.4930 -0.3731
  567DECAN   C3 5653   2.417   9.499  11.244 -0.1755 -0.2964 -0.1955
  567DECAN   C4 5654   2.319   9.430  11.340 -0.4228  0.3573  0.0256
  567DECAN   C5 5655   2.388   9.347  11.449 -0.3836  0.3819  0.0200
  567DECAN   C6 5656   2.288   9.264  11.532 -0.3798  0.4707  0.1129
  567DECAN   C7 5657   2.154   9.242  11.458 -0.0954  0.2058 -0.3231
  567DECAN   C8 5658   2.066   9.163  11.557  0.2700  0.1702 -0.0222
  567DECAN   C9 5659   1.939   9.106  11.492  0.0366  0.4115  0.2229
  567DECAN  C10 5660   1.945   9.008  11.374  0.2288  0.1035  0.4901
  568DECAN   C1 5661   9.747   6.646  14.278 -0.0197  0.8244 -0.5392
  568DECAN   C2 5662   9.844   6.755  14.229  0.3154  0.5762 -0.4350
  568DECAN   C3 5663   9.873   6.748  14.078  0.2930 -0.1822 -0.4099
  568DECAN   C4 5664   9.970   6.638  14.033  0.2206 -0.2468 -0.4083
  568DECAN   C5 5665   9.912   6.496  14.048 -0.5449  0.0674 -0.3291
  568DECAN   C6 5666   9.813   6.446  13.941 -0.4878  0.0838 -0.3903
  568DECAN   C7 5667   9.853   6.482  13.797 -0.0651  0.1362 -0.2607
  568DECAN   C8 5668   9.737   6.458  13.699 -0.5348  0.4796  0.2015
  568DECAN   C9 5669   9.718   6.308  13.668  0.3100  0.4472 -0.1988
  568DECAN  C10 5670   9.592   6.265  13.591  0.3090 -0.1139  0.1148
  569DECAN   C1 5671   5.403   8.803  12.368 -0.2113 -0.1623 -0.0119
  569DECAN   C2 5672   5.433   8.834  12.221 -0.5358  0.1330 -0.0188
  569DECAN   C3 5673   5.452   8.713  12.128 -0.4403  0.2828 -0.1942
  569DECAN   C4 5674   5.484   8.736  11.979  0.1453  0.0184 -0.1150
  569DECAN   C5 5675   5.617   8.802  11.937  0.1281 -0.1114 -0.3705
  569DECAN   C6 5676   5.619   8.832  11.786  0.1569  0.0596 -0.3357
  569DECAN   C7 5677   5.739   8.915  11.738  0.1443  0.1902 -0.1410
  569DECAN   C8 5678   5.769   8.908  11.587  0.4304  0.1133 -0.0808
  569DECAN   C9 5679   5.872   8.809  11.529  0.3845  0.0927 -0.1261
  569DECAN  C10 5680   5.842   8.771  11.383  0.4079 -0.2091 -0.0541
  570DECAN   C1 5681   8.187   2.138   4.872  0.3153 -0.3135 -0.5500
  570DECAN   C2 5682   8.338   2.112   4.850  0.5060  1.1151 -1.0067
  570DECAN   C3 5683   8.421   2.199   4.946 -0.4678 -0.0395  0.9513
  570DECAN   C4 5684   8.575   2.190   4.957 -0.3849 -0.0805 -0.1589
  570DECAN   C5 5685   8.628   2.230   5.096  0.1360  0.1030 -0.4102
  570DECAN   C6 5686   8.782   2.229   5.081  0.2129  0.5050  0.3242
  570DECAN   C7 5687   8.839   2.349   5.003 -0.0522  0.2812 -0.2243
  570DECAN   C8 5688   8.985   2.316   4.965 -0.0307  0.0888  0.0192
  570DECAN   C9 5689   9.044   2.412   4.860 -0.0358  0.0718  0.0010
  570DECAN  C10 5690   9.188   2.368   4.826 -0.0653 -0.3513  0.4042
  571DECAN   C1 5691   3.101   9.913  14.019  0.1565 -0.1288 -0.2662
  571DECAN   C2 5692   3.061   9.837  14.147 -0.2729 -0.0065 -0.3298
  571DECAN   C3 5693   3.166   9.822  14.258 -0.2044  0.4309 -0.3330
  571DECAN   C4 5694   3.206   9.958  14.318  0.2863  0.1454 -0.0064
  571DECAN   C5 5695   3.251   9.973  14.465  0.3878 -0.3108  0.0104
  571DECAN   C6 5696   3.289  10.112  14.517  0.1428 -0.1140 -0.3282
  571DECAN   C7 5697   3.357  10.109  14.656 -0.0221  0.4250 -0.2333
  571DECAN   C8 5698   3.394  10.239  14.731 -0.7154  0.3532  0.2339
  571DECAN   C9 5699   3.453  10.223  14.872 -0.1302 -0.3243 -0.0774
  571DECAN  C10 5700   3.334  10.178  14.959 -0.8702 -0.0592 -0.9385
  572DECAN   C1 5701   7.060   2.563   6.319 -0.2367 -0.4352  0.4618
  572DECAN   C2 5702   6.930   2.520   6.247 -0.1649  0.3303 -0.1400
  572DECAN   C3 5703   6.909   2.394   6.160 -0.0141  0.0911  0.1643
  572DECAN   C4 5704   6.826   2.282   6.225 -0.1283  0.1468  0.1155
  572DECAN   C5 5705   6.859   2.144   6.167 -0.3024  0.2607 -0.2613
  572DECAN   C6 5706   6.802   2.116   6.027 -0.2851  0.2267 -0.2617
  572DECAN   C7 5707   6.839   1.997   5.936  0.5892  0.1000  0.2478
  572DECAN   C8 5708   6.767   1.994   5.800 -0.4017 -0.0749  0.7652
  572DECAN   C9 5709   6.803   1.872   5.713  0.1528  0.5477  0.1019
  572DECAN  C10 5710   6.744   1.879   5.571  0.4585  0.0098 -0.0550
  573DECAN   C1 5711   8.261   0.656  14.126 -0.0459 -0.3485 -0.3057
  573DECAN   C2 5712   8.271   0.597  13.984 -0.3027 -0.7631 -0.1536
  573DECAN   C3 5713   8.139   0.614  13.908 -0.5727 -0.8723  0.2828
  573DECAN   C4 5714   8.079   0.755  13.897  0.2376 -0.6185 -1.0717
  573DECAN   C5 5715   7.943   0.759  13.825 -0.5521 -0.1435  0.4205
  573DECAN   C6 5716   7.873   0.896  13.824 -0.1296  0.0722 -0.2300
  573DECAN   C7 5717   7.737   0.913  13.754 -0.1529 -0.1789 -0.2448
  573DECAN   C8 5718   7.684   1.057  13.756 -0.0930 -0.1646  0.2455
  573DECAN   C9 5719   7.580   1.092  13.648  0.1804 -0.0500  0.0181
  573DECAN  C10 5720   7.502   1.219  13.685 -0.0444 -0.0716 -0.3739
  574DECAN   C1 5721   1.249   6.532  12.352 -0.3005 -0.2362  0.5555
  574DECAN   C2 5722   1.138   6.546  12.246 -0.4815 -0.1441  0.7587
  574DECAN   C3 5723   1.052   6.674  12.252  0.1179  0.3171 -0.2304
  574DECAN   C4 5724   1.114   6.796  12.182  0.4640  0.3862  0.1907
  574DECAN   C5 5725   1.069   6.928  12.247 -0.6918  0.2986 -0.4139
  574DECAN   C6 5726   1.137   7.052  12.185  0.4804  0.1245  0.4940
  574DECAN   C7 5727   1.094   7.189  12.242 -0.0090 -0.1173  0.7143
  574DECAN   C8 5728   1.183   7.304  12.193 -0.1492 -0.2897  0.0346
  574DECAN   C9 5729   1.148   7.434  12.269  0.1613 -0.2874  0.1772
  574DECAN  C10 5730   1.203   7.572  12.230 -0.9687  0.2793  0.5539
  575DECAN   C1 5731   5.144  10.697  12.093 -0.1869 -0.2527  0.9487
  575DECAN   C2 5732   5.032  10.615  12.026  0.2511 -0.4301  0.4238
  575DECAN   C3 5733   4.935  10.581  12.141 -0.2778 -0.4724 -0.0327
  575DECAN   C4 5734   4.802  10.525  12.087 -0.0124 -0.6351 -0.5303
  575DECAN   C5 5735   4.729  10.485  12.216 -0.0877  0.4270 -0.2303
  575DECAN   C6 5736   4.578  10.511  12.213 -0.2441 -0.3751  0.3111
  575DECAN   C7 5737   4.505  10.435  12.100 -0.1739  0.2517 -0.1591
  575DECAN   C8 5738   4.367  10.489  12.060 -0.1543  0.1763 -0.3281
  575DECAN   C9 5739   4.286  10.412  11.954  0.0308 -0.1945 -0.2008
  575DECAN  C10 5740   4.180  10.501  11.886 -0.2477 -0.2045  0.2207
  576DECAN   C1 5741   7.663  10.265   6.089 -0.7750  0.5464  0.5793
  576DECAN   C2 5742   7.781  10.336   6.019 -0.8318  0.3508  0.2845
  576DECAN   C3 5743   7.811  10.479   6.066 -0.1659  0.2529  0.1574
  576DECAN   C4 5744   7.914  10.562   5.987 -0.5153  0.4156 -0.1254
  576DECAN   C5 5745   7.905  10.714   6.013 -0.3397  0.3798  0.1431
  576DECAN   C6 5746   7.923  10.761   6.159 -0.2438 -0.1550  0.3080
  576DECAN   C7 5747   7.922  10.914   6.176  0.1426 -0.1555  0.3183
  576DECAN   C8 5748   8.000  10.965   6.298 -0.1971 -0.8172  0.8136
  576DECAN   C9 5749   8.145  10.916   6.317  0.0914 -0.2603  0.1017
  576DECAN  C10 5750   8.148  10.762   6.316 -0.3277 -0.2688  0.0506
  577DECAN   C1 5751   8.318   3.884   5.709 -0.2387  0.8539 -0.1637
  577DECAN   C2 5752   8.174   3.884   5.762  0.1958  0.7153  1.0488
  577DECAN   C3 5753   8.142   3.778   5.870 -0.1465  0.0886  0.3399
  577DECAN   C4 5754   8.004   3.783   5.938 -0.4338 -0.0457 -0.2263
  577DECAN   C5 5755   7.989   3.660   6.029  0.1485  0.2158  0.2287
  577DECAN   C6 5756   7.883   3.666   6.141 -0.3108  0.4708 -0.2166
  577DECAN   C7 5757   7.737   3.642   6.099  0.0098 -0.9973 -0.5322
  577DECAN   C8 5758   7.632   3.646   6.211  0.4822  0.1026 -0.1160
  577DECAN   C9 5759   7.484   3.658   6.169  0.3148  0.0311  0.4541
  577DECAN  C10 5760   7.392   3.657   6.293  0.2155 -0.4986  0.3763
  578DECAN   C1 5761   9.504   2.765  13.542 -0.1017  0.2572  0.0809
  578DECAN   C2 5762   9.637   2.779  13.466  0.0099 -0.1935  0.1912
  578DECAN   C3 5763   9.631   2.883  13.353 -0.3661 -0.0340  0.3578
  578DECAN   C4 5764   9.570   2.840  13.218  0.9002 -0.1943 -0.1733
  578DECAN   C5 5765   9.584   2.946  13.107 -0.2533  0.1151 -0.0318
  578DECAN   C6 5766   9.498   3.072  13.132 -0.7563 -0.1061 -0.6321
  578DECAN   C7 5767   9.551   3.193  13.054  0.0659 -0.1646 -0.1749
  578DECAN   C8 5768   9.459   3.317  13.044  0.0189 -0.1734  0.1358
  578DECAN   C9 5769   9.508   3.433  12.955  0.2020 -0.2129  0.1854
  578DECAN  C10 5770   9.646   3.480  13.005  0.0737 -0.1922  0.5216
  579DECAN   C1 5771   8.827   6.003   5.324  0.1821 -0.1772 -0.2067
  579DECAN   C2 5772   8.718   5.993   5.432  0.1888  0.0174 -0.1820
  579DECAN   C3 5773   8.750   6.026   5.579  0.2824 -0.6314 -0.0512
  579DECAN   C4 5774   8.630   6.039   5.676  0.3766 -0.0213 -0.0069
  579DECAN   C5 5775   8.678   6.031   5.822 -0.3534  0.1772  0.2467
  579DECAN   C6 5776   8.763   6.147   5.875  0.3020 -0.0429 -0.3113
  579DECAN   C7 5777   8.842   6.112   6.002  0.1072 -0.2213 -0.2387
  579DECAN   C8 5778   8.909   6.225   6.084  0.4019  0.0155 -0.8035
  579DECAN   C9 5779   9.016   6.180   6.185 -0.2336  0.4559  0.0805
  579DECAN  C10 5780   9.074   6.293   6.271 -0.0416  0.8598 -0.5768
  580DECAN   C1 5781   9.070   5.480   7.476 -0.5415 -0.2732 -0.4263
  580DECAN   C2 5782   9.222   5.454   7.489 -0.5017  0.3344  0.3499
  580DECAN   C3 5783   9.313   5.577   7.508  0.3161 -0.0999 -0.6468
  580DECAN   C4 5784   9.459   5.551   7.545  0.1643  0.4773  0.4009
  580DECAN   C5 5785   9.490   5.490   7.684 -0.4145  0.1120  0.3700
  580DECAN   C6 5786   9.466   5.337   7.683 -0.5725  0.1329 -0.4364
  580DECAN   C7 5787   9.526   5.244   7.576 -0.0827  0.0596 -0.0997
  580DECAN   C8 5788   9.494   5.095   7.593 -0.2250  0.0600 -0.3693
  580DECAN   C9 5789   9.593   4.993   7.532  0.2121  0.1904  0.1206
  580DECAN  C10 5790   9.517   4.863   7.503  0.5605  0.1003 -0.3956
  581DECAN   C1 5791   2.425   8.647   6.220  0.3878 -0.0571 -0.1316
  581DECAN   C2 5792   2.519   8.769   6.210  0.3205  0.0278  0.2567
  581DECAN   C3 5793   2.667   8.734   6.188  0.3686  0.2418  0.2417
  581DECAN   C4 5794   2.755   8.859   6.172  0.0143  0.4018 -0.5129
  581DECAN   C5 5795   2.726   8.970   6.275 -0.8388 -0.0529 -0.2595
  581DECAN   C6 5796   2.800   9.100   6.241 -0.7006 -0.0246  0.1480
  581DECAN   C7 5797   2.754   9.227   6.314  0.4126  0.3184  0.2757
  581DECAN   C8 5798   2.825   9.355   6.268  0.4251  0.0225 -0.5267
  581DECAN   C9 5799   2.958   9.364   6.346  0.1137  0.2954 -0.0271
  581DECAN  C10 5800   2.958   9.357   6.500 -0.1391  0.7138 -0.0066
  582DECAN   C1 5801   9.217  10.773  11.705  0.1007 -0.1768 -0.6655
  582DECAN   C2 5802   9.366  10.784  11.745 -0.1273  0.1710  0.1107
  582DECAN   C3 5803   9.454  10.816  11.623 -0.1019 -0.2469  0.0171
  582DECAN   C4 5804   9.605  10.829  11.651 -0.0202 -0.4434 -0.3282
  582DECAN   C5 5805   9.693  10.889  11.539 -0.4175  0.3395 -0.2315
  582DECAN   C6 5806   9.836  10.902  11.592 -0.3544 -0.4308 -0.1971
  582DECAN   C7 5807   9.946  10.949  11.494 -0.0564 -0.2070  0.2383
  582DECAN   C8 5808  10.093  10.932  11.537  0.0991  0.2942 -0.0862
  582DECAN   C9 5809  10.200  10.964  11.432  0.1667  0.3148 -0.0121
  582DECAN  C10 5810  10.335  10.917  11.488 -0.0327  0.1519  0.3396
  583DECAN   C1 5811   4.890  10.074   9.609  0.8489  0.9857 -0.1337
  583DECAN   C2 5812   4.853  10.003   9.477 -0.7356  0.6654  0.4695
  583DECAN   C3 5813   4.703   9.990   9.444 -0.4911  0.0607 -0.4427
  583DECAN   C4 5814   4.669   9.959   9.297 -0.4285  0.3003 -0.5071
  583DECAN   C5 5815   4.703   9.813   9.260 -0.1284  0.1620  0.2782
  583DECAN   C6 5816   4.678   9.781   9.111  0.0134  0.1833  0.2498
  583DECAN   C7 5817   4.749   9.654   9.062 -0.2035  0.0600  0.2591
  583DECAN   C8 5818   4.703   9.521   9.126 -0.0636  0.0918  0.4257
  583DECAN   C9 5819   4.744   9.397   9.044 -0.2487  0.3136 -0.0013
  583DECAN  C10 5820   4.704   9.253   9.079  0.7738  0.0269  0.0094
  584DECAN   C1 5821   3.330   3.257   8.350  0.2362 -0.0734  0.2962
  584DECAN   C2 5822   3.327   3.354   8.230 -0.4100 -0.4950 -0.0333
  584DECAN   C3 5823   3.342   3.501   8.275  0.5954 -0.4290 -0.5643
  584DECAN   C4 5824   3.321   3.603   8.161 -0.1862  0.0759  0.0217
  584DECAN   C5 5825   3.177   3.625   8.112  0.0963  0.0006 -0.8486
  584DECAN   C6 5826   3.075   3.668   8.219  0.4195  0.3431 -0.6748
  584DECAN   C7 5827   3.115   3.794   8.296  0.0921 -0.1238  0.2706
  584DECAN   C8 5828   3.022   3.846   8.408 -0.3875  0.1811 -0.2671
  584DECAN   C9 5829   3.026   3.998   8.429  0.1950  0.1627 -0.2397
  584DECAN  C10 5830   2.931   4.023   8.547 -0.2868 -0.3839 -0.5073
  585DECAN   C1 5831   4.579   9.301   8.278  0.0445  0.1779 -0.2055
  585DECAN   C2 5832   4.698   9.256   8.364 -0.5764 -0.2160  0.4664
  585DECAN   C3 5833   4.720   9.105   8.381 -0.0018 -0.2087 -0.1425
  585DECAN   C4 5834   4.616   9.019   8.456  0.1809  0.2299  0.6244
  585DECAN   C5 5835   4.645   8.869   8.436 -0.0527  0.2760 -0.0917
  585DECAN   C6 5836   4.549   8.765   8.498  0.8646 -0.3745  0.2632
  585DECAN   C7 5837   4.606   8.622   8.484  0.5282 -0.4890  0.0454
  585DECAN   C8 5838   4.539   8.504   8.557 -0.3742  0.1172  0.2294
  585DECAN   C9 5839   4.626   8.383   8.598 -0.3344  0.1052  0.1100
  585DECAN  C10 5840   4.532   8.268   8.638 -0.0323 -0.1239  0.1592
  586DECAN   C1 5841   9.042   7.819   4.198 -0.2874 -0.4822 -0.2425
  586DECAN   C2 5842   8.997   7.913   4.312 -0.1222 -0.5263 -0.1417
  586DECAN   C3 5843   8.843   7.910   4.314 -0.1340  0.0618 -0.1206
  586DECAN   C4 5844   8.779   7.989   4.429  0.0182  0.1611 -0.1030
  586DECAN   C5 5845   8.805   7.941   4.573  0.6786  0.3431 -0.1573
  586DECAN   C6 5846   8.738   8.029   4.681  0.0013 -0.0374 -0.2589
  586DECAN   C7 5847   8.588   7.996   4.693 -0.0846  0.0649 -0.9966
  586DECAN   C8 5848   8.552   7.848   4.675  0.2455 -0.1007 -0.3203
  586DECAN   C9 5849   8.402   7.822   4.654  0.1168  0.2840  0.1045
  586DECAN  C10 5850   8.371   7.698   4.568  0.1171  0.1684  0.2693
  587DECAN   C1 5851   5.266  10.448   7.989 -0.1087 -0.5836  0.7562
  587DECAN   C2 5852   5.309  10.589   8.034 -0.1863 -0.3214  0.0213
  587DECAN   C3 5853   5.457  10.621   8.010 -0.2033 -0.3635 -0.1476
  587DECAN   C4 5854   5.498  10.648   7.864  0.6929  0.5737  0.2623
  587DECAN   C5 5855   5.461  10.542   7.759  0.4995  0.3869  0.5177
  587DECAN   C6 5856   5.550  10.552   7.633 -0.3232  0.2635 -0.0842
  587DECAN   C7 5857   5.507  10.446   7.530 -0.0783  0.2090 -0.1329
  587DECAN   C8 5858   5.609  10.425   7.417 -0.1002  0.1750 -0.1459
  587DECAN   C9 5859   5.636  10.556   7.342  0.0099 -0.0132 -0.4347
  587DECAN  C10 5860   5.708  10.651   7.439  0.0206 -0.3836 -0.0793
  588DECAN   C1 5861   3.998  10.758  15.032 -0.4439  0.3134  0.9660
  588DECAN   C2 5862   4.128  10.833  14.999  0.0691 -0.9217  0.0788
  588DECAN   C3 5863   4.130  10.894  14.858 -0.3011  0.1482  0.5222
  588DECAN   C4 5864   4.221  11.017  14.846  0.1857 -0.2442  0.1320
  588DECAN   C5 5865   4.192  11.102  14.721  0.1715 -0.5669 -0.0827
  588DECAN   C6 5866   4.286  11.222  14.702  0.3845 -0.7252 -0.0391
  588DECAN   C7 5867   4.432  11.182  14.675  0.5335  0.0188 -0.3580
  588DECAN   C8 5868   4.503  11.115  14.794  0.3751  0.2674 -0.1214
  588DECAN   C9 5869   4.629  11.046  14.740  0.1144 -0.4589  0.1886
  588DECAN  C10 5870   4.722  11.130  14.650 -0.3597  0.6216  0.6972
  589DECAN   C1 5871   5.944   5.759   7.168  0.1351 -0.6010 -0.0102
  589DECAN   C2 5872   5.966   5.866   7.277  0.2076 -0.6243 -0.0020
  589DECAN   C3 5873   5.837   5.947   7.297  0.6162 -0.0051  0.1778
  589DECAN   C4 5874   5.709   5.878   7.349  0.2397  0.3224 -0.3033
  589DECAN   C5 5875   5.580   5.962   7.359  0.1968  0.2025  0.1558
  589DECAN   C6 5876   5.534   6.024   7.226  0.0344  0.0087  0.1216
  589DECAN   C7 5877   5.407   6.111   7.234  0.1559  0.1663  0.3372
  589DECAN   C8 5878   5.370   6.173   7.098 -0.3440 -0.0274  0.3846
  589DECAN   C9 5879   5.474   6.276   7.051  0.0315 -0.8895 -0.7133
  589DECAN  C10 5880   5.620   6.229   7.067  0.0574 -0.5601  0.0302
  590DECAN   C1 5881   3.605   3.357  14.559 -0.6228 -0.1753 -0.0867
  590DECAN   C2 5882   3.629   3.265  14.680  0.3676 -0.2153 -0.3113
  590DECAN   C3 5883   3.567   3.126  14.659 -0.5122  0.1772 -0.3362
  590DECAN   C4 5884   3.414   3.136  14.640 -0.5292  0.5045 -0.0335
  590DECAN   C5 5885   3.345   2.999  14.644  0.0710  0.1768 -0.6863
  590DECAN   C6 5886   3.432   2.891  14.577  0.5463 -0.1916  0.4997
  590DECAN   C7 5887   3.340   2.767  14.580  0.5830 -0.2345 -0.1210
  590DECAN   C8 5888   3.200   2.804  14.529  0.5085 -0.1186  0.1690
  590DECAN   C9 5889   3.123   2.670  14.531  0.0203  0.1471 -0.3664
  590DECAN  C10 5890   2.978   2.686  14.484 -0.4176 -0.1241  0.8731
  591DECAN   C1 5891   7.075   6.210  14.108 -0.5080 -0.1459  0.2853
  591DECAN   C2 5892   6.990   6.175  13.984  0.0424  0.1024 -0.1674
  591DECAN   C3 5893   6.838   6.185  14.006  0.1184  0.1682  0.3348
  591DECAN   C4 5894   6.754   6.167  13.879  0.4653 -0.7238  0.2201
  591DECAN   C5 5895   6.805   6.235  13.750 -0.5153  0.5174  0.4613
  591DECAN   C6 5896   6.861   6.377  13.767 -0.5419  0.5953 -0.1001
  591DECAN   C7 5897   6.856   6.467  13.641  0.3964  0.0737 -0.5215
  591DECAN   C8 5898   6.714   6.511  13.601  0.1609 -0.1889  0.0004
  591DECAN   C9 5899   6.710   6.606  13.479  0.1732 -0.0762  0.0871
  591DECAN  C10 5900   6.559   6.625  13.451  0.0520 -0.5681  0.3958
  592DECAN   C1 5901  11.287   4.519   9.411  0.1655  0.0181 -0.3837
  592DECAN   C2 5902  11.302   4.667   9.453 -0.4715  0.0724 -0.3377
  592DECAN   C3 5903  11.166   4.736   9.478 -0.7089 -0.2868 -0.6236
  592DECAN   C4 5904  11.096   4.667   9.597  0.3170  0.0926  0.2199
  592DECAN   C5 5905  10.950   4.706   9.625  0.2923  0.0768  0.1098
  592DECAN   C6 5906  10.851   4.655   9.519  0.4833 -0.2253  0.0749
  592DECAN   C7 5907  10.813   4.507   9.534 -0.0972 -0.1084 -0.1997
  592DECAN   C8 5908  10.931   4.412   9.505  0.0775  0.0560 -0.0276
  592DECAN   C9 5909  10.904   4.262   9.527 -0.2547 -0.0207 -0.9182
  592DECAN  C10 5910  11.042   4.195   9.509 -0.0773  0.1052 -0.0652
  593DECAN   C1 5911   7.748   3.048  10.015 -1.0976  0.3910 -0.3916
  593DECAN   C2 5912   7.864   3.149  10.016 -0.5025 -0.2903  0.1655
  593DECAN   C3 5913   7.878   3.227   9.884  0.1941 -0.1535  0.3137
  593DECAN   C4 5914   8.003   3.316   9.872  0.5293 -0.6830 -0.1647
  593DECAN   C5 5915   8.011   3.378   9.732  0.3900  0.4024  0.2992
  593DECAN   C6 5916   7.987   3.285   9.611 -0.5447  0.8445  0.1410
  593DECAN   C7 5917   7.850   3.217   9.627  0.1410 -0.5856  0.0444
  593DECAN   C8 5918   7.828   3.119   9.510  0.8397 -0.3478 -0.2913
  593DECAN   C9 5919   7.687   3.059   9.493  0.5117  0.2834  0.1414
  593DECAN  C10 5920   7.674   2.955   9.380 -0.6300  0.3856  0.1667
  594DECAN   C1 5921   3.613   4.084   6.274  0.0977 -0.1944 -0.5748
  594DECAN   C2 5922   3.548   4.223   6.287  0.1687 -0.1267 -0.9161
  594DECAN   C3 5923   3.406   4.217   6.346  0.5065 -0.2417 -0.0994
  594DECAN   C4 5924   3.311   4.337   6.326  0.5132 -0.2388 -0.1129
  594DECAN   C5 5925   3.188   4.334   6.418  0.2433 -0.1309 -0.4693
  594DECAN   C6 5926   3.098   4.459   6.405 -0.1180 -0.3413 -0.0060
  594DECAN   C7 5927   2.959   4.460   6.471  0.0025  0.0581  0.2446
  594DECAN   C8 5928   2.848   4.373   6.408  0.4488 -0.3658  0.0353
  594DECAN   C9 5929   2.708   4.430   6.437  0.3007 -0.3265 -0.7420
  594DECAN  C10 5930   2.597   4.405   6.333 -0.1842  0.2842 -0.3824
  595DECAN   C1 5931   7.340   5.297   4.397 -0.0284  0.8274  0.0953
  595DECAN   C2 5932   7.305   5.271   4.249 -0.0747  0.3070  0.1958
  595DECAN   C3 5933   7.407   5.332   4.151  0.2088  0.1821  0.4085
  595DECAN   C4 5934   7.406   5.290   4.003  0.5487  0.4869  0.3185
  595DECAN   C5 5935   7.456   5.146   3.982 -0.2136  0.3165 -0.4072
  595DECAN   C6 5936   7.595   5.101   4.031 -0.3590  0.4066  0.0988
  595DECAN   C7 5937   7.711   5.171   3.960 -0.0859 -0.2348 -0.0959
  595DECAN   C8 5938   7.848   5.135   4.020  0.0107  0.1593 -0.0737
  595DECAN   C9 5939   7.975   5.181   3.947 -0.1916 -0.1507 -0.6284
  595DECAN  C10 5940   8.100   5.108   3.999 -0.2510 -0.1359 -0.4641
  596DECAN   C1 5941   3.528   8.314  14.490 -0.0853  0.1797 -0.1772
  596DECAN   C2 5942   3.592   8.342  14.627 -0.1548  0.4284 -0.1946
  596DECAN   C3 5943   3.502   8.445  14.699 -0.3199 -0.0072  0.2232
  596DECAN   C4 5944   3.547   8.483  14.841 -0.0858 -0.1156  0.1793
  596DECAN   C5 5945   3.443   8.570  14.913 -0.3241 -0.2426 -0.0112
  596DECAN   C6 5946   3.474   8.716  14.953 -0.2634 -0.3449  0.3196
  596DECAN   C7 5947   3.362   8.789  15.029  0.0669  0.9843 -0.4405
  596DECAN   C8 5948   3.371   8.942  15.032 -0.3118  0.9961  0.5262
  596DECAN   C9 5949   3.268   9.028  15.108 -0.5667  0.3694  0.8927
  596DECAN  C10 5950   3.270   9.181  15.088  0.2533  0.1331 -1.0105
  597DECAN   C1 5951   2.225   3.272  12.206 -0.6617 -0.4990  0.0029
  597DECAN   C2 5952   2.235   3.253  12.359  0.2166 -0.5863 -0.0607
  597DECAN   C3 5953   2.347   3.160  12.412  0.4048 -0.1078  0.3893
  597DECAN   C4 5954   2.360   3.026  12.337 -0.1054  0.2692 -0.3944
  597DECAN   C5 5955   2.454   2.919  12.395 -0.6237  0.3557  0.6331
  597DECAN   C6 5956   2.409   2.773  12.376  0.4730  0.1185 -0.2547
  597DECAN   C7 5957   2.500   2.667  12.440 -0.3693 -0.0763  0.6406
  597DECAN   C8 5958   2.450   2.522  12.426 -0.6478  0.0069  0.7641
  597DECAN   C9 5959   2.523   2.420  12.517 -0.5138  0.4340  1.1402
  597DECAN  C10 5960   2.486   2.277  12.473  0.5451  0.5937 -0.3678
  598DECAN   C1 5961   8.399  10.826   6.000 -0.4088 -0.4860 -0.0843
  598DECAN   C2 5962   8.418  10.674   6.008 -0.6060 -0.5072 -0.0140
  598DECAN   C3 5963   8.417  10.595   5.876  0.1527  0.0866 -0.3770
  598DECAN   C4 5964   8.467  10.450   5.880 -0.2125 -0.0318 -0.0136
  598DECAN   C5 5965   8.447  10.360   5.756 -0.4916  0.0758 -0.0482
  598DECAN   C6 5966   8.552  10.247   5.754 -0.4112  0.1578 -0.4596
  598DECAN   C7 5967   8.535  10.146   5.638  0.3380 -0.1298 -0.3239
  598DECAN   C8 5968   8.651  10.045   5.641  0.3701 -0.0716  0.5081
  598DECAN   C9 5969   8.611   9.928   5.548  0.0323 -0.0548  0.6271
  598DECAN  C10 5970   8.733   9.844   5.508  0.1304  0.1354  0.5249
  599DECAN   C1 5971   6.180   4.429  10.729  0.2423  0.4971  0.6702
  599DECAN   C2 5972   6.328   4.438  10.688  0.1435 -0.1203  0.1658
  599DECAN   C3 5973   6.363   4.405  10.542 -0.0185  0.0630  0.0851
  599DECAN   C4 5974   6.507   4.452  10.514 -0.0478 -0.2216 -0.5518
  599DECAN   C5 5975   6.565   4.455  10.371 -0.0807 -0.2223 -0.5654
  599DECAN   C6 5976   6.707   4.507  10.345 -0.1455  0.2204 -0.0535
  599DECAN   C7 5977   6.743   4.544  10.200 -0.0683 -0.1665 -0.1345
  599DECAN   C8 5978   6.657   4.660  10.146  0.0236 -0.0301  0.0137
  599DECAN   C9 5979   6.671   4.671   9.993 -0.0823 -0.0692  0.0010
  599DECAN  C10 5980   6.589   4.790   9.940  0.4740  0.3830  0.1559
  600DECAN   C1 5981   1.574   0.895  13.085 -0.3531 -0.0610  0.5695
  600DECAN   C2 5982   1.446   0.959  13.026  0.1419 -0.0279 -0.4836
  600DECAN   C3 5983   1.429   0.924  12.877  0.1427 -0.6860 -0.3332
  600DECAN   C4 5984   1.565   0.934  12.806  0.0251 -0.1480 -0.4886
  600DECAN   C5 5985   1.612   1.079  12.781  0.1595 -0.1244 -0.1091
  600DECAN   C6 5986   1.754   1.110  12.732  0.2605 -0.2333  0.1135
  600DECAN   C7 5987   1.785   1.244  12.663 -0.0644 -0.0860  0.2517
  600DECAN   C8 5988   1.884   1.214  12.548  0.0707 -0.2091  0.3996
  600DECAN   C9 5989   2.022   1.176  12.605  0.3179  0.4249  0.2276
  600DECAN  C10 5990   2.138   1.176  12.504  0.4926 -0.1080  0.4267
  601DECAN   C1 5991   5.043   8.334  12.413  0.1214  0.3030  0.1289
  601DECAN   C2 5992   5.188   8.382  12.389  0.3287 -0.2594  0.2458
  601DECAN   C3 5993   5.207   8.462  12.259  0.1332 -0.4691  0.0893
  601DECAN   C4 5994   5.173   8.384  12.130  0.4342  0.1233 -0.3536
  601DECAN   C5 5995   5.201   8.450  11.994 -0.0385 -0.0782 -0.5522
  601DECAN   C6 5996   5.158   8.382  11.862 -0.2406 -0.3227 -0.3607
  601DECAN   C7 5997   5.160   8.228  11.871 -0.7349 -0.2926  0.3501
  601DECAN   C8 5998   5.098   8.169  11.743  0.7740 -0.8918 -0.1289
  601DECAN   C9 5999   5.087   8.015  11.744 -0.0348 -0.8351  0.4643
  601DECAN  C10 6000   5.039   7.945  11.615  0.7866 -0.8250  0.1496
  602DECAN   C1 6001   3.855   9.742  10.290 -0.9500 -0.7562  0.0058
  602DECAN   C2 6002   3.897   9.649  10.405  0.1957 -0.2074  0.0486
  602DECAN   C3 6003   3.883   9.695  10.551  0.0316 -0.1934  0.0286
  602DECAN   C4 6004   3.738   9.698  10.603 -0.0511 -0.2242 -0.1989
  602DECAN   C5 6005   3.726   9.733  10.753 -0.4470  0.0251 -0.2880
  602DECAN   C6 6006   3.595   9.692  10.823 -0.5166  0.6766 -0.0307
  602DECAN   C7 6007   3.584   9.685  10.976 -0.1083  0.3780 -0.0142
  602DECAN   C8 6008   3.459   9.609  11.025  0.3361 -0.2893  0.1035
  602DECAN   C9 6009   3.466   9.460  10.984 -0.6423 -0.3542  0.1576
  602DECAN  C10 6010   3.340   9.388  11.035 -0.7769 -0.0273  0.2955
  603DECAN   C1 6011   8.862   4.204  14.570 -0.2341  0.6802  0.2659
  603DECAN   C2 6012   8.935   4.215  14.705  0.2270 -0.4542  0.1227
  603DECAN   C3 6013   9.083   4.173  14.706  0.3138 -0.1730 -0.3471
  603DECAN   C4 6014   9.149   4.233  14.832 -0.2423 -0.2807  0.0013
  603DECAN   C5 6015   9.074   4.195  14.961  0.1492  0.1918  0.3724
  603DECAN   C6 6016   8.950   4.280  14.996  0.0712  0.4220 -0.4357
  603DECAN   C7 6017   8.985   4.423  15.040  0.5773  0.3828 -0.6970
  603DECAN   C8 6018   8.853   4.491  15.082  0.5488 -0.1597  0.0993
  603DECAN   C9 6019   8.873   4.639  15.119  0.2489 -0.3092  0.8960
  603DECAN  C10 6020   8.746   4.708  15.172 -0.1172 -0.1929 -0.1000
  604DECAN   C1 6021   9.560   9.961   6.205  0.0330 -0.3471 -0.3174
  604DECAN   C2 6022   9.606   9.833   6.133  0.3579 -0.2184 -0.3378
  604DECAN   C3 6023   9.564   9.818   5.986 -0.3565 -0.2178 -0.1338
  604DECAN   C4 6024   9.617   9.690   5.920  0.0339 -0.2932  0.3144
  604DECAN   C5 6025   9.557   9.675   5.778 -0.0714 -0.1159  0.3409
  604DECAN   C6 6026   9.593   9.551   5.695  0.0587 -0.2312  0.5688
  604DECAN   C7 6027   9.519   9.534   5.561  0.5091 -0.2225  0.3198
  604DECAN   C8 6028   9.553   9.658   5.476 -0.2633 -0.0260  0.2929
  604DECAN   C9 6029   9.694   9.671   5.416 -0.3949 -0.3679 -0.0953
  604DECAN  C10 6030   9.807   9.705   5.514 -0.5596  0.0603 -0.0516
  605DECAN   C1 6031   8.175   9.585  12.445  0.4398  0.0883 -0.7447
  605DECAN   C2 6032   8.156   9.449  12.376  0.5231 -0.1343 -0.3328
  605DECAN   C3 6033   8.153   9.455  12.222  0.8717  0.3778 -0.3200
  605DECAN   C4 6034   8.167   9.313  12.167  0.5573  0.2454 -0.0655
  605DECAN   C5 6035   8.045   9.227  12.207  0.7393  0.0305  0.0289
  605DECAN   C6 6036   8.064   9.090  12.139  0.7490 -0.0735  0.2399
  605DECAN   C7 6037   7.966   8.989  12.200  0.4534  0.2918  0.3774
  605DECAN   C8 6038   7.998   8.846  12.151 -0.0461  0.2935  0.0320
  605DECAN   C9 6039   8.007   8.847  11.998 -1.0478 -0.8187 -0.0510
  605DECAN  C10 6040   7.881   8.902  11.929 -0.8611 -0.3950 -0.0576
  606DECAN   C1 6041   8.474   7.317  10.299 -0.5877 -0.3305  0.0252
  606DECAN   C2 6042   8.613   7.351  10.244 -0.6341  0.7339  0.5317
  606DECAN   C3 6043   8.604   7.404  10.100 -0.6840 -0.3651  0.1172
  606DECAN   C4 6044   8.539   7.544  10.105 -0.9623 -0.4812 -0.2133
  606DECAN   C5 6045   8.538   7.604   9.962 -0.4826  0.3930  0.1373
  606DECAN   C6 6046   8.453   7.732   9.965  0.3932  0.9889 -0.1159
  606DECAN   C7 6047   8.305   7.709  10.002  0.3642  0.5391 -0.5109
  606DECAN   C8 6048   8.270   7.691  10.151  0.2509  0.1375 -0.5833
  606DECAN   C9 6049   8.121   7.696  10.186  0.4028  0.1993  0.0560
  606DECAN  C10 6050   8.059   7.832  10.146  0.5505  0.2599  0.0332
  607DECAN   C1 6051   2.465   1.316  11.908 -0.0456 -0.3722  1.0095
  607DECAN   C2 6052   2.387   1.192  11.959 -0.0696 -0.9114 -0.2983
  607DECAN   C3 6053   2.268   1.164  11.866 -0.4856  0.2714 -0.1483
  607DECAN   C4 6054   2.156   1.065  11.902 -0.3360  0.0071 -0.3983
  607DECAN   C5 6055   2.091   1.088  12.040  0.3563  0.1224 -0.0842
  607DECAN   C6 6056   2.014   0.963  12.088  0.1309  0.2903 -0.0069
  607DECAN   C7 6057   1.927   0.976  12.215  0.7985  0.1374  0.4760
  607DECAN   C8 6058   1.835   0.853  12.223  0.3976  0.4089  0.1183
  607DECAN   C9 6059   1.728   0.864  12.333  0.4027  0.0848  0.1571
  607DECAN  C10 6060   1.656   0.729  12.350 -0.6914  0.6341 -0.0248
  608DECAN   C1 6061   7.344   6.274   6.755 -0.1008  0.1369  0.1812
  608DECAN   C2 6062   7.251   6.240   6.637  0.0744  0.6275 -0.1006
  608DECAN   C3 6063   7.320   6.244   6.499 -0.0940 -0.6278 -0.2394
  608DECAN   C4 6064   7.239   6.214   6.371 -0.2201  0.2916 -0.3890
  608DECAN   C5 6065   7.321   6.193   6.243 -0.1242  0.4271 -0.3497
  608DECAN   C6 6066   7.437   6.290   6.214 -0.1067  0.4834 -0.0887
  608DECAN   C7 6067   7.489   6.275   6.070 -0.1751 -0.3497 -0.0275
  608DECAN   C8 6068   7.382   6.328   5.974 -0.1668  0.4068  0.3703
  608DECAN   C9 6069   7.422   6.328   5.825  0.1371 -0.6967  0.4409
  608DECAN  C10 6070   7.312   6.387   5.736  0.3527 -0.3039  0.4328
  609DECAN   C1 6071   2.927   9.398   7.751 -0.4272  0.7109 -0.1316
  609DECAN   C2 6072   2.873   9.489   7.638 -0.7039  0.1991 -0.4152
  609DECAN   C3 6073   2.930   9.632   7.632  0.4998 -0.2672 -0.3514
  609DECAN   C4 6074   2.855   9.729   7.539 -0.0688 -0.2065  0.1639
  609DECAN   C5 6075   2.933   9.862   7.542  0.5105 -0.5424  0.1226
  609DECAN   C6 6076   2.946   9.929   7.680  0.5978 -0.2308 -0.0359
  609DECAN   C7 6077   3.033  10.055   7.666 -0.3554  0.4406 -0.0010
  609DECAN   C8 6078   3.185  10.033   7.656 -0.3480  0.5889 -0.2479
  609DECAN   C9 6079   3.277  10.129   7.734  0.0043  0.0922 -0.0477
  609DECAN  C10 6080   3.428  10.130   7.701  0.0826 -0.0484  0.2985
  610DECAN   C1 6081   2.500  10.482  11.305  0.3648 -0.2039 -0.2003
  610DECAN   C2 6082   2.559  10.624  11.307 -0.0032 -0.0586  0.7555
  610DECAN   C3 6083   2.662  10.657  11.416  0.2660  0.3421  0.3843
  610DECAN   C4 6084   2.690  10.808  11.416 -0.4924  0.4869 -0.4501
  610DECAN   C5 6085   2.766  10.845  11.544 -0.2222 -0.3881 -0.3498
  610DECAN   C6 6086   2.919  10.826  11.532 -0.1945 -0.0382 -0.5712
  610DECAN   C7 6087   2.952  10.680  11.495 -0.4542 -0.0920 -0.5965
  610DECAN   C8 6088   3.101  10.641  11.482 -0.3547  0.0120  0.1986
  610DECAN   C9 6089   3.125  10.490  11.461 -0.2117  0.1794 -0.8756
  610DECAN  C10 6090   3.266  10.430  11.439 -0.1755 -0.1496  0.2246
  611DECAN   C1 6091   8.128   6.953  10.353 -0.8837  0.5270  0.0355
  611DECAN   C2 6092   8.042   6.832  10.312 -0.0730 -0.0617  0.0531
  611DECAN   C3 6093   8.089   6.702  10.381  0.4346  0.0440 -0.0917
  611DECAN   C4 6094   8.017   6.574  10.337 -0.3746  0.4316  0.0902
  611DECAN   C5 6095   8.086   6.443  10.381 -0.1854  0.3972 -0.2986
  611DECAN   C6 6096   8.231   6.422  10.335 -0.1968 -0.1903 -0.0671
  611DECAN   C7 6097   8.296   6.294  10.392  0.0142 -0.0241  0.0651
  611DECAN   C8 6098   8.424   6.256  10.316 -0.0150 -0.3312  0.1670
  611DECAN   C9 6099   8.407   6.244  10.163  0.3483  0.6212  0.0413
  611DECAN  C10 6100   8.538   6.228  10.083  0.3023 -0.5208  0.1730
  612DECAN   C1 6101   2.682   0.658   5.310 -0.3441 -0.3511  0.5657
  612DECAN   C2 6102   2.566   0.607   5.223  0.5477 -0.4702 -0.5646
  612DECAN   C3 6103   2.480   0.505   5.299  0.5125 -0.2953 -0.3687
  612DECAN   C4 6104   2.355   0.456   5.223 -0.2328 -0.0025  0.6487
  612DECAN   C5 6105   2.401   0.373   5.101 -0.8157  0.3374  0.1936
  612DECAN   C6 6106   2.278   0.315   5.028 -0.4523 -0.4906  0.2389
  612DECAN   C7 6107   2.329   0.229   4.911  0.0685  0.5528 -0.3159
  612DECAN   C8 6108   2.386   0.099   4.973 -0.6257  0.3025 -0.1988
  612DECAN   C9 6109   2.297   0.001   5.052  0.1268 -0.2441 -0.0163
  612DECAN  C10 6110   2.373  11.152   5.148  0.5264  0.1854  0.0851
  613DECAN   C1 6111   2.370   2.269  13.204 -0.3169  0.4945  0.0774
  613DECAN   C2 6112   2.273   2.231  13.090 -0.0663  0.0805  0.0004
  613DECAN   C3 6113   2.272   2.349  12.990 -0.2104 -0.0664 -0.1723
  613DECAN   C4 6114   2.183   2.343  12.865 -0.2805  0.4597 -0.1488
  613DECAN   C5 6115   2.167   2.469  12.778  0.2161  0.4001 -0.3304
  613DECAN   C6 6116   2.081   2.438  12.654  0.4698  0.1335 -0.4393
  613DECAN   C7 6117   2.049   2.553  12.558 -0.0736  0.2724 -0.0974
  613DECAN   C8 6118   1.997   2.512  12.418  0.3338 -0.0708 -0.1466
  613DECAN   C9 6119   1.990   2.632  12.323 -0.8042  0.1498  0.2032
  613DECAN  C10 6120   1.952   2.600  12.177 -0.2732  0.5547 -0.0267
  614DECAN   C1 6121   5.163   7.512   9.631  0.1079  0.2629  0.2682
  614DECAN   C2 6122   5.213   7.368   9.653  0.2727  0.2459 -0.2041
  614DECAN   C3 6123   5.093   7.281   9.697  0.0001  0.6460 -0.1517
  614DECAN   C4 6124   4.973   7.272   9.601  0.0708 -0.1111 -0.1748
  614DECAN   C5 6125   4.834   7.213   9.631  0.4274 -0.9476 -0.1421
  614DECAN   C6 6126   4.747   7.197   9.505 -0.1801  0.0934  0.1350
  614DECAN   C7 6127   4.723   7.331   9.432 -0.1532 -0.0033 -0.0526
  614DECAN   C8 6128   4.634   7.319   9.307  0.2774  0.1343 -0.3708
  614DECAN   C9 6129   4.569   7.455   9.276 -0.3898 -0.0437  0.2247
  614DECAN  C10 6130   4.509   7.463   9.135  0.3491  0.1553 -0.0847
  615DECAN   C1 6131   8.213   7.105   5.310 -0.4138  0.0115 -0.2366
  615DECAN   C2 6132   8.146   7.087   5.447 -0.3154  0.2217 -0.1614
  615DECAN   C3 6133   8.136   6.937   5.481 -0.6370  0.2927  0.0608
  615DECAN   C4 6134   8.069   6.889   5.611  0.5490  0.0921  0.6111
  615DECAN   C5 6135   8.031   6.743   5.642 -0.0059  0.1397  0.1517
  615DECAN   C6 6136   7.923   6.678   5.552  0.1565 -0.1601  0.1731
  615DECAN   C7 6137   7.896   6.532   5.594  0.2853 -0.3178 -0.2886
  615DECAN   C8 6138   7.814   6.454   5.490 -0.0605 -0.0005 -0.2569
  615DECAN   C9 6139   7.799   6.304   5.524  0.4428  0.0116  0.0299
  615DECAN  C10 6140   7.688   6.237   5.441  0.8945 -0.8060  0.0799
  616DECAN   C1 6141   9.921   3.265  14.325 -0.1399 -0.2944 -0.5214
  616DECAN   C2 6142   9.910   3.182  14.196  0.1643 -0.5356 -0.3924
  616DECAN   C3 6143   9.915   3.255  14.061  0.0208 -0.0075 -0.1139
  616DECAN   C4 6144   9.873   3.177  13.934 -0.2235  0.1442 -0.1279
  616DECAN   C5 6145   9.724   3.141  13.930 -0.2480  0.1682  0.4580
  616DECAN   C6 6146   9.675   3.057  13.810 -0.2759  0.2808  0.3899
  616DECAN   C7 6147   9.525   3.038  13.782 -0.1498 -0.1942  0.0136
  616DECAN   C8 6148   9.453   2.971  13.901 -0.0099  0.1303  0.2826
  616DECAN   C9 6149   9.300   2.983  13.891  0.0092 -0.1949 -0.3935
  616DECAN  C10 6150   9.219   2.939  13.767 -0.4738 -0.0186 -0.1379
  617DECAN   C1 6151   1.204   4.705  12.392 -0.6621  0.5246  0.4656
  617DECAN   C2 6152   1.194   4.726  12.240 -0.4215 -0.5314  0.2932
  617DECAN   C3 6153   1.311   4.791  12.163 -0.2906 -0.7944  0.2698
  617DECAN   C4 6154   1.306   4.802  12.010 -0.4624  0.6767  0.3641
  617DECAN   C5 6155   1.408   4.897  11.945 -0.0763  0.0566  0.0517
  617DECAN   C6 6156   1.473   4.854  11.812  0.1533 -0.0356  0.1938
  617DECAN   C7 6157   1.585   4.950  11.766  0.1159 -0.2500 -0.3521
  617DECAN   C8 6158   1.624   4.904  11.624  0.4854 -0.2579 -0.2500
  617DECAN   C9 6159   1.739   4.985  11.561  0.2318  0.1920 -0.1405
  617DECAN  C10 6160   1.703   5.135  11.566 -0.2371  0.1146 -0.9227
  618DECAN   C1 6161   2.518   6.953   4.049 -0.5561 -0.2822  0.6474
  618DECAN   C2 6162   2.483   7.101   4.075 -0.1100  0.0177 -0.4141
  618DECAN   C3 6163   2.407   7.137   4.204 -0.1804 -0.0448 -0.4379
  618DECAN   C4 6164   2.405   7.286   4.243 -0.1830 -0.2230  0.2388
  618DECAN   C5 6165   2.351   7.389   4.143 -0.3622 -0.0954  0.4647
  618DECAN   C6 6166   2.374   7.529   4.202 -0.1816  0.0445  0.0666
  618DECAN   C7 6167   2.339   7.649   4.112  0.5111 -0.1293 -0.4421
  618DECAN   C8 6168   2.429   7.763   4.163 -0.1783  0.3029 -0.1753
  618DECAN   C9 6169   2.416   7.899   4.093  0.1379  0.4942  0.1300
  618DECAN  C10 6170   2.456   8.038   4.145  0.2190  0.3483  0.4600
  619DECAN   C1 6171   9.126  10.099   6.415 -0.1574 -0.0576 -0.1100
  619DECAN   C2 6172   8.986  10.043   6.448 -0.2173  0.5353  0.6475
  619DECAN   C3 6173   8.877  10.137   6.393  0.0697  0.3798 -0.1841
  619DECAN   C4 6174   8.881  10.131   6.239  0.4798  0.0355 -0.1626
  619DECAN   C5 6175   8.792  10.230   6.161  0.6445  0.2038 -0.1363
  619DECAN   C6 6176   8.804  10.212   6.009 -0.1138  0.2083 -0.1974
  619DECAN   C7 6177   8.945  10.215   5.947  0.0124 -0.2186  0.0639
  619DECAN   C8 6178   8.934  10.253   5.798 -0.0420 -0.8063 -0.0856
  619DECAN   C9 6179   9.069  10.275   5.728 -0.1416 -0.6993 -0.2425
  619DECAN  C10 6180   9.050  10.318   5.581 -0.3678  0.1673  0.0315
  620DECAN   C1 6181   3.093   0.276  14.349  0.2433 -0.0230  0.3411
  620DECAN   C2 6182   2.974   0.304  14.444  0.2060 -0.2496  0.3623
  620DECAN   C3 6183   3.001   0.429  14.530  0.0640  0.1082 -0.1088
  620DECAN   C4 6184   3.119   0.418  14.628 -0.2055 -0.3180  0.1696
  620DECAN   C5 6185   3.164   0.548  14.696 -0.0594 -0.1501 -0.2444
  620DECAN   C6 6186   3.293   0.540  14.781 -0.0628  0.4590 -0.1771
  620DECAN   C7 6187   3.280   0.462  14.912 -0.2778  0.0230 -0.4549
  620DECAN   C8 6188   3.345   0.322  14.915 -0.1415  0.0953  0.2568
  620DECAN   C9 6189   3.487   0.325  14.855 -0.3002  0.5951 -0.0981
  620DECAN  C10 6190   3.563   0.192  14.872 -0.2587  0.7070  0.6245
  621DECAN   C1 6191   7.891   7.167  13.886  0.1289  0.3349 -0.0732
  621DECAN   C2 6192   7.911   7.251  14.014  0.1882 -0.1212  0.2208
  621DECAN   C3 6193   8.024   7.197  14.103  0.9973 -0.3005 -0.8957
  621DECAN   C4 6194   8.098   7.306  14.183 -0.2450 -0.5991  0.7255
  621DECAN   C5 6195   8.021   7.396  14.281 -0.0043  0.0270  0.3463
  621DECAN   C6 6196   7.979   7.321  14.409 -0.1747 -0.5208 -0.0250
  621DECAN   C7 6197   7.906   7.408  14.513 -0.1348 -0.6313  0.0949
  621DECAN   C8 6198   7.879   7.334  14.645  0.2887 -0.0226  0.5303
  621DECAN   C9 6199   7.786   7.214  14.622  0.3019  0.0856 -0.1071
  621DECAN  C10 6200   7.798   7.115  14.505  0.1834  0.3353 -0.3305
  622DECAN   C1 6201  11.161   6.211   8.900  0.2500 -0.0214 -0.0883
  622DECAN   C2 6202  11.070   6.109   8.970  0.3111 -0.2540 -0.3489
  622DECAN   C3 6203  11.083   5.973   8.899  0.2022 -0.2997 -0.2825
  622DECAN   C4 6204  10.955   5.890   8.918  0.0321  0.1237  0.4495
  622DECAN   C5 6205  10.952   5.763   8.830 -0.1038  0.1778  0.3742
  622DECAN   C6 6206  10.832   5.670   8.850  0.0026 -0.1810 -0.6100
  622DECAN   C7 6207  10.702   5.748   8.826 -0.4334 -0.7276 -0.0753
  622DECAN   C8 6208  10.680   5.761   8.674  0.4520 -0.2443 -0.1706
  622DECAN   C9 6209  10.570   5.854   8.619  0.1166 -0.2593  0.4615
  622DECAN  C10 6210  10.611   6.002   8.636  0.1496 -0.0777 -1.0340
  623DECAN   C1 6211  10.023   9.419  10.620 -0.0627  0.0084  0.0491
  623DECAN   C2 6212   9.946   9.359  10.501 -0.2026  0.4402 -0.0790
  623DECAN   C3 6213   9.815   9.299  10.553  0.2432 -0.3317  0.1636
  623DECAN   C4 6214   9.723   9.232  10.449  0.1119 -0.1301  0.1501
  623DECAN   C5 6215   9.600   9.158  10.506  0.5724 -0.4834  0.6907
  623DECAN   C6 6216   9.521   9.085  10.396  0.7799  0.3592 -0.0342
  623DECAN   C7 6217   9.507   9.163  10.264  0.5569 -0.0811 -0.2720
  623DECAN   C8 6218   9.459   9.071  10.150 -0.1840  0.1689 -0.1666
  623DECAN   C9 6219   9.449   9.138  10.011 -0.7780  0.8163  0.1823
  623DECAN  C10 6220   9.413   9.040   9.898  1.3259  0.0622  0.1216
  624DECAN   C1 6221   4.199   4.447  14.727  0.1808 -0.3951 -0.0182
  624DECAN   C2 6222   4.126   4.582  14.724  0.4343 -0.2656 -0.4844
  624DECAN   C3 6223   4.126   4.664  14.854  0.3938  0.1437 -0.7399
  624DECAN   C4 6224   4.073   4.804  14.819 -0.3973 -0.0228 -0.2406
  624DECAN   C5 6225   4.095   4.918  14.920  0.5214 -0.3256 -0.0923
  624DECAN   C6 6226   4.055   5.050  14.853 -0.2365 -0.3817  0.2418
  624DECAN   C7 6227   4.085   5.187  14.917 -0.1866 -0.2931  0.0309
  624DECAN   C8 6228   4.024   5.316  14.860  0.1692 -0.0442  0.2104
  624DECAN   C9 6229   4.028   5.434  14.959 -0.2741 -0.0418  0.2280
  624DECAN  C10 6230   3.932   5.412  15.077 -0.3236 -0.4438  0.1152
  625DECAN   C1 6231  10.839   8.373  12.551 -0.2373  0.2091  0.1809
  625DECAN   C2 6232  10.873   8.229  12.596 -0.1848  0.1077 -0.1816
  625DECAN   C3 6233  10.757   8.148  12.656  0.3623 -0.5392  0.0106
  625DECAN   C4 6234  10.694   8.224  12.774  0.2072 -0.5073 -0.0913
  625DECAN   C5 6235  10.553   8.171  12.807  0.0203  0.0105 -0.0468
  625DECAN   C6 6236  10.438   8.201  12.710 -0.1483  0.1599  0.1990
  625DECAN   C7 6237  10.296   8.175  12.762  0.0757 -0.0377  0.7155
  625DECAN   C8 6238  10.189   8.178  12.651  0.5880  0.2276  0.2243
  625DECAN   C9 6239  10.047   8.128  12.687  0.4261  0.4757 -0.0701
  625DECAN  C10 6240  10.005   8.184  12.824  0.1493 -0.0757  0.0745
  626DECAN   C1 6241   7.184  10.945   7.641 -0.0277 -0.1881  0.1607
  626DECAN   C2 6242   7.231  11.067   7.723  0.2573 -0.1787 -0.0154
  626DECAN   C3 6243   7.169  11.096   7.861  0.1061 -0.2454 -0.0697
  626DECAN   C4 6244   7.244  11.211   7.930 -0.0515 -0.1751 -0.0149
  626DECAN   C5 6245   7.164   0.025   8.048  0.4542 -0.2989  0.3934
  626DECAN   C6 6246   7.222   0.167   8.056 -0.0699 -0.0396 -0.3018
  626DECAN   C7 6247   7.220   0.243   7.922 -0.1259  0.2570 -0.1340
  626DECAN   C8 6248   7.332   0.347   7.905  0.3250 -0.1420  0.3643
  626DECAN   C9 6249   7.352   0.382   7.756 -0.0794 -0.2997  0.2718
  626DECAN  C10 6250   7.469   0.477   7.724 -0.1911 -0.3043 -0.1515
  627DECAN   C1 6251   4.956   0.338   5.059  0.0177 -0.2617 -0.2135
  627DECAN   C2 6252   5.109   0.347   5.040 -0.0197 -0.0425 -0.4161
  627DECAN   C3 6253   5.157   0.494   5.047  0.5340 -0.2294 -0.2600
  627DECAN   C4 6254   5.307   0.526   5.037  0.5930 -0.2979  0.3539
  627DECAN   C5 6255   5.333   0.672   5.078 -0.2476  0.0830 -0.4226
  627DECAN   C6 6256   5.285   0.711   5.219  0.1046  0.0163 -0.2826
  627DECAN   C7 6257   5.135   0.735   5.247  0.1872 -0.0021  0.1869
  627DECAN   C8 6258   5.111   0.763   5.396  0.3943 -0.7236  0.3624
  627DECAN   C9 6259   4.960   0.758   5.426  0.3579 -0.1421  0.2895
  627DECAN  C10 6260   4.937   0.803   5.571 -0.0340  0.2449  0.1091
  628DECAN   C1 6261   4.503   2.810  13.723  0.2136  0.2993 -0.2103
  628DECAN   C2 6262   4.447   2.710  13.620  0.4804  0.0178 -0.0816
  628DECAN   C3 6263   4.390   2.781  13.496 -0.4691  0.0103  0.3476
  628DECAN   C4 6264   4.346   2.680  13.388  0.5559 -0.1795  0.1000
  628DECAN   C5 6265   4.323   2.743  13.250  0.5121 -0.0854  0.1506
  628DECAN   C6 6266   4.439   2.822  13.187  0.1231  0.4892  0.1470
  628DECAN   C7 6267   4.394   2.892  13.058 -0.1808 -0.4778 -0.2820
  628DECAN   C8 6268   4.512   2.974  13.003 -0.0359 -0.3090  0.2690
  628DECAN   C9 6269   4.486   3.013  12.856 -0.0850  0.0210  0.3637
  628DECAN  C10 6270   4.608   3.068  12.780  0.2007 -0.4148  0.5018
  629DECAN   C1 6271  10.156   4.479  10.863 -0.4828  0.1707  0.1605
  629DECAN   C2 6272  10.073   4.366  10.800 -0.6042 -0.1625  0.9085
  629DECAN   C3 6273   9.962   4.415  10.704  0.1252 -0.0101  0.1350
  629DECAN   C4 6274   9.889   4.297  10.639  0.1748  0.1150 -0.1494
  629DECAN   C5 6275   9.785   4.329  10.531 -0.3469  0.1561  0.3597
  629DECAN   C6 6276   9.764   4.222  10.422 -0.1647  0.2922  0.1896
  629DECAN   C7 6277   9.621   4.242  10.369 -0.2244 -0.1070  0.1984
  629DECAN   C8 6278   9.571   4.134  10.271 -0.0986 -0.1602  0.1919
  629DECAN   C9 6279   9.602   3.990  10.314  0.1456 -0.0580  0.3598
  629DECAN  C10 6280   9.568   3.958  10.461 -0.6829 -0.1973  0.1438
  630DECAN   C1 6281  10.144   5.406  11.511  0.3498 -0.0907  0.0249
  630DECAN   C2 6282  10.294   5.396  11.542  0.3071 -0.0393  0.2462
  630DECAN   C3 6283  10.354   5.527  11.488 -0.0870 -0.0754 -0.2873
  630DECAN   C4 6284  10.500   5.534  11.537 -0.3158  0.3869  0.3456
  630DECAN   C5 6285  10.535   5.456  11.665 -0.3060  0.1169  0.1775
  630DECAN   C6 6286  10.504   5.549  11.783  0.3240  0.6621 -0.0795
  630DECAN   C7 6287  10.528   5.478  11.918 -0.3298 -0.1248 -0.3675
  630DECAN   C8 6288  10.679   5.449  11.929 -0.2704  0.1312 -0.4953
  630DECAN   C9 6289  10.777   5.562  11.893  0.1089 -0.3796 -1.1080
  630DECAN  C10 6290  10.919   5.510  11.865  0.5794 -0.0425  0.4924
  631DECAN   C1 6291   2.218   3.397   8.174 -0.2515  0.0578  0.1651
  631DECAN   C2 6292   2.365   3.435   8.197 -0.1758 -0.1138 -0.0298
  631DECAN   C3 6293   2.399   3.585   8.183 -0.2294 -0.1122 -0.1515
  631DECAN   C4 6294   2.347   3.661   8.307 -0.2621 -0.2502 -0.0792
  631DECAN   C5 6295   2.398   3.610   8.442 -0.2859 -0.8533 -0.2967
  631DECAN   C6 6296   2.326   3.670   8.565 -0.4639  0.2784 -0.9449
  631DECAN   C7 6297   2.172   3.677   8.563 -0.5228 -0.1414  0.7061
  631DECAN   C8 6298   2.127   3.738   8.697  0.1881  0.2801  0.7603
  631DECAN   C9 6299   2.195   3.674   8.820  0.0240 -0.5854  0.4067
  631DECAN  C10 6300   2.349   3.666   8.824  0.0572  0.2496  0.9561
  632DECAN   C1 6301   3.838   3.452  14.232 -1.0191 -0.1033  0.4900
  632DECAN   C2 6302   3.807   3.433  14.082 -0.1100 -0.3677  0.3282
  632DECAN   C3 6303   3.787   3.288  14.033 -0.0650 -0.2027 -0.1853
  632DECAN   C4 6304   3.815   3.264  13.884  0.4947  0.4072 -0.1840
  632DECAN   C5 6305   3.730   3.356  13.794  0.6224  0.1515 -0.5675
  632DECAN   C6 6306   3.768   3.351  13.645  0.4118  0.0798 -0.6193
  632DECAN   C7 6307   3.679   3.442  13.557  0.8265  0.7629 -0.3443
  632DECAN   C8 6308   3.657   3.588  13.601 -0.0481  0.5678 -0.1078
  632DECAN   C9 6309   3.601   3.672  13.486 -0.4555 -0.0183 -0.3429
  632DECAN  C10 6310   3.582   3.824  13.507 -0.8064 -0.0884 -0.1428
  633DECAN   C1 6311   8.000   5.304  12.020  0.1690  0.1000  0.2413
  633DECAN   C2 6312   7.878   5.253  11.942 -0.2032 -0.0600  0.9162
  633DECAN   C3 6313   7.773   5.365  11.925  0.0592  0.0852  0.2000
  633DECAN   C4 6314   7.636   5.331  11.987 -0.1318 -0.4276 -0.4924
  633DECAN   C5 6315   7.531   5.442  12.003 -0.0269 -0.3230 -0.5310
  633DECAN   C6 6316   7.405   5.409  12.084  0.2753  0.2660  0.1880
  633DECAN   C7 6317   7.428   5.366  12.230 -0.5312  0.0634  0.2607
  633DECAN   C8 6318   7.466   5.475  12.332 -0.1457  0.1573  0.0178
  633DECAN   C9 6319   7.373   5.597  12.329 -0.1759  0.1368  0.1054
  633DECAN  C10 6320   7.421   5.703  12.430  0.0685  0.4353 -0.3213
  634DECAN   C1 6321   2.624  11.197   8.528 -0.2180 -0.1345  0.2749
  634DECAN   C2 6322   2.698  11.063   8.539  0.2381  0.1022  0.1409
  634DECAN   C3 6323   2.643  10.992   8.664  0.4516 -0.0174  0.1677
  634DECAN   C4 6324   2.704  10.853   8.689 -0.1402 -0.2757  0.1924
  634DECAN   C5 6325   2.857  10.869   8.692 -0.1547 -0.1521  0.2535
  634DECAN   C6 6326   2.920  10.733   8.726 -0.4412 -0.3628 -0.0562
  634DECAN   C7 6327   3.073  10.739   8.747 -0.4964 -0.3698  0.3568
  634DECAN   C8 6328   3.141  10.602   8.768  0.4170  0.0458  0.1603
  634DECAN   C9 6329   3.295  10.604   8.770  0.4267 -0.0423 -0.3747
  634DECAN  C10 6330   3.359  10.689   8.881  0.0388 -0.2365  0.0005
  635DECAN   C1 6331   6.196   2.163  13.768 -0.4971  0.7037  0.7052
  635DECAN   C2 6332   6.112   2.034  13.776  0.0635  0.2747 -0.1759
  635DECAN   C3 6333   6.196   1.904  13.776 -0.1454  0.1377 -1.1286
  635DECAN   C4 6334   6.118   1.772  13.768  0.0279 -0.0421  0.0023
  635DECAN   C5 6335   6.046   1.755  13.632 -0.1830 -0.1942  0.1316
  635DECAN   C6 6336   5.951   1.873  13.605 -0.1764 -0.1224  0.4128
  635DECAN   C7 6337   5.873   1.865  13.472  0.3643 -0.2345  0.0999
  635DECAN   C8 6338   5.951   1.864  13.339  0.1150 -0.2886 -0.0453
  635DECAN   C9 6339   5.863   1.847  13.214 -0.0786 -0.3772  0.1020
  635DECAN  C10 6340   5.930   1.864  13.076  0.1426  0.6903  0.3321
  636DECAN   C1 6341   4.675   8.291   7.215  0.4712  0.6238  0.0833
  636DECAN   C2 6342   4.760   8.244   7.335 -0.2352 -0.0501  0.3230
  636DECAN   C3 6343   4.665   8.197   7.447 -0.5995  0.0300  0.0531
  636DECAN   C4 6344   4.724   8.166   7.586 -0.0742  1.2331  0.1124
  636DECAN   C5 6345   4.617   8.122   7.688  0.5135 -0.3287  0.0938
  636DECAN   C6 6346   4.676   8.038   7.802 -0.1954 -0.4283  0.3928
  636DECAN   C7 6347   4.634   7.889   7.804 -0.5369 -0.3347  0.2459
  636DECAN   C8 6348   4.720   7.821   7.911  0.4333  0.0370 -0.2761
  636DECAN   C9 6349   4.703   7.668   7.909  0.1799  0.0616 -0.0747
  636DECAN  C10 6350   4.814   7.600   7.992  0.1894 -0.1389 -0.2487
  637DECAN   C1 6351   4.015   7.480  12.656 -0.1537  0.2037  0.4209
  637DECAN   C2 6352   3.864   7.453  12.675 -0.1267 -0.1252  0.1777
  637DECAN   C3 6353   3.790   7.353  12.584  0.4122 -0.2720 -0.1071
  637DECAN   C4 6354   3.814   7.203  12.606 -0.3281 -0.3457  0.2260
  637DECAN   C5 6355   3.739   7.108  12.510 -0.4539 -0.2241  0.2027
  637DECAN   C6 6356   3.758   6.955  12.518 -0.4970 -0.2002  0.8083
  637DECAN   C7 6357   3.666   6.883  12.418  0.1207  0.8479 -0.5578
  637DECAN   C8 6358   3.522   6.864  12.468  0.4265 -0.0173  0.0323
  637DECAN   C9 6359   3.436   6.801  12.357  0.7588 -0.2011 -0.1216
  637DECAN  C10 6360   3.468   6.657  12.314  0.4674 -0.2216 -0.2734
  638DECAN   C1 6361   5.502   9.993  10.569  0.0378 -0.7521 -0.2417
  638DECAN   C2 6362   5.578   9.914  10.677  0.0243 -0.2886  0.1098
  638DECAN   C3 6363   5.490   9.831  10.771 -0.5413  0.4752  0.2661
  638DECAN   C4 6364   5.440   9.905  10.897 -0.1947  0.1843  0.5784
  638DECAN   C5 6365   5.322   9.835  10.968 -0.3209  0.0843  0.2757
  638DECAN   C6 6366   5.297   9.895  11.108  0.3294 -0.1306  0.4883
  638DECAN   C7 6367   5.173   9.865  11.195 -0.1120 -0.0293 -0.0959
  638DECAN   C8 6368   5.145   9.976  11.298  0.0464  0.4573 -0.5715
  638DECAN   C9 6369   5.024   9.939  11.386  0.6341 -0.1589 -0.0182
  638DECAN  C10 6370   4.991  10.062  11.472  0.0512 -0.2117 -0.1655
  639DECAN   C1 6371   8.176   5.199  14.774 -0.2019 -0.8688  0.0608
  639DECAN   C2 6372   8.038   5.207  14.841 -0.0699 -0.4639  0.2937
  639DECAN   C3 6373   8.040   5.186  14.994  0.3097 -0.6892  0.2578
  639DECAN   C4 6374   7.907   5.197  15.070 -0.1628 -0.5125 -0.5816
  639DECAN   C5 6375   7.873   5.347  15.057 -0.0190 -0.3720  0.5907
  639DECAN   C6 6376   7.746   5.395  15.131  0.3736  0.3301  0.8145
  639DECAN   C7 6377   7.717   5.541  15.095  0.0209  0.0440 -0.0988
  639DECAN   C8 6378   7.821   5.642  15.147  0.0726 -0.0124 -0.0923
  639DECAN   C9 6379   7.795   5.788  15.104  0.0787  0.0879  0.2406
  639DECAN  C10 6380   7.667   5.857  15.154 -0.2257 -0.3676  0.0994
  640DECAN   C1 6381   2.877   9.169   5.497 -0.0225  0.1724  0.1540
  640DECAN   C2 6382   2.871   9.016   5.480  0.2209  0.1152  0.5599
  640DECAN   C3 6383   2.728   8.970   5.517  0.3423 -0.3261  0.4773
  640DECAN   C4 6384   2.622   8.993   5.408  0.0305  0.0244  0.8505
  640DECAN   C5 6385   2.502   8.899   5.428 -0.0098 -0.1951 -0.3145
  640DECAN   C6 6386   2.413   8.890   5.303 -0.2117  0.7171 -0.2377
  640DECAN   C7 6387   2.283   8.811   5.327 -0.3808  1.0147 -0.1650
  640DECAN   C8 6388   2.172   8.816   5.220 -0.3008  0.3136 -0.2845
  640DECAN   C9 6389   2.038   8.751   5.261  0.0558 -0.1132  0.2298
  640DECAN  C10 6390   1.967   8.673   5.150 -0.3456  0.7816 -0.1523
  641DECAN   C1 6391   5.677   1.009   9.215  0.4485 -0.0949 -0.2046
  641DECAN   C2 6392   5.550   0.929   9.249  0.4509 -0.0990 -0.2043
  641DECAN   C3 6393   5.551   0.776   9.236  0.7325 -0.1781  0.6832
  641DECAN   C4 6394   5.429   0.705   9.297  0.4388 -0.3604 -0.1025
  641DECAN   C5 6395   5.405   0.738   9.446  0.4648  0.0452 -0.1873
  641DECAN   C6 6396   5.518   0.689   9.538  0.1347 -0.5813 -0.1125
  641DECAN   C7 6397   5.520   0.759   9.676  0.1063 -0.3485 -0.2293
  641DECAN   C8 6398   5.635   0.708   9.764 -0.0098 -0.0668  0.0835
  641DECAN   C9 6399   5.638   0.755   9.911  0.1056 -0.1112  0.0960
  641DECAN  C10 6400   5.760   0.716   9.996 -0.0317  0.1876  0.4330
  642DECAN   C1 6401   4.684   5.239   9.710  0.1533 -0.2226 -0.2487
  642DECAN   C2 6402   4.569   5.249   9.812  0.2170  0.2089 -0.2178
  642DECAN   C3 6403   4.615   5.249   9.959 -0.1493  0.1705 -0.1021
  642DECAN   C4 6404   4.509   5.289  10.063  0.0746 -0.1884  0.2628
  642DECAN   C5 6405   4.390   5.192  10.053 -0.2936  0.3272 -0.4118
  642DECAN   C6 6406   4.275   5.211  10.153  0.2517 -0.9598  0.4968
  642DECAN   C7 6407   4.157   5.115  10.126 -0.3419 -0.1218  0.0495
  642DECAN   C8 6408   4.025   5.122  10.204 -0.5404 -0.1559 -0.2797
  642DECAN   C9 6409   4.032   5.065  10.347  0.1250  0.5589 -0.0208
  642DECAN  C10 6410   3.904   5.057  10.431  0.0191  0.1674 -0.2140
  643DECAN   C1 6411   5.143   5.459  11.300  0.3098 -0.4363 -0.1743
  643DECAN   C2 6412   5.101   5.437  11.153 -0.6128 -0.3402  0.0646
  643DECAN   C3 6413   5.017   5.310  11.139  0.0198 -0.7665  0.0886
  643DECAN   C4 6414   4.875   5.327  11.196  0.2445 -0.0626  0.4448
  643DECAN   C5 6415   4.856   5.395  11.333  0.3035  0.4076  0.2228
  643DECAN   C6 6416   4.709   5.397  11.379  0.3564 -0.7920  0.4805
  643DECAN   C7 6417   4.663   5.521  11.458 -0.3623 -0.5857 -0.2503
  643DECAN   C8 6418   4.517   5.543  11.502 -0.2410 -0.2912  0.0041
  643DECAN   C9 6419   4.456   5.441  11.600  0.2909 -0.0008  0.6482
  643DECAN  C10 6420   4.335   5.497  11.677 -0.0734  0.2897 -0.1265
  644DECAN   C1 6421   8.358   7.133   7.825 -0.1651 -0.0101 -0.0633
  644DECAN   C2 6422   8.247   7.170   7.925  0.5356  0.3904  0.5819
  644DECAN   C3 6423   8.117   7.208   7.851  0.6374  0.2826  0.3476
  644DECAN   C4 6424   8.003   7.265   7.937  0.2302 -0.0770  0.0481
  644DECAN   C5 6425   7.943   7.142   8.007 -0.2712 -0.1922 -0.5695
  644DECAN   C6 6426   7.816   7.178   8.087  0.2456 -0.1028  0.2271
  644DECAN   C7 6427   7.726   7.060   8.127  0.1794 -0.0196  0.3260
  644DECAN   C8 6428   7.589   7.098   8.186  0.0731 -0.0767  0.1136
  644DECAN   C9 6429   7.509   6.968   8.207  0.1517 -0.1414  0.0185
  644DECAN  C10 6430   7.377   7.015   8.271  0.1389  0.6963 -0.6048
  645DECAN   C1 6431   4.025   8.918  14.111 -0.0673 -0.0539  0.0697
  645DECAN   C2 6432   4.065   8.972  14.250  0.1108 -0.1885  0.0705
  645DECAN   C3 6433   3.957   8.995  14.357  0.1994  0.3929  0.0340
  645DECAN   C4 6434   4.004   9.028  14.500  0.2980  0.1478  0.0571
  645DECAN   C5 6435   3.890   9.045  14.603  0.3396 -0.3142  0.1835
  645DECAN   C6 6436   3.943   9.073  14.745 -0.2735 -0.1460  0.3800
  645DECAN   C7 6437   3.829   9.039  14.842 -0.1900 -0.7311  0.2739
  645DECAN   C8 6438   3.889   9.045  14.984  0.3593  0.7642 -0.0027
  645DECAN   C9 6439   3.800   9.018  15.108  0.4182  0.0135 -0.1205
  645DECAN  C10 6440   3.688   9.120  15.133  0.5237  0.1690 -0.2808
  646DECAN   C1 6441   4.863   1.340   6.995  0.1410  0.5670 -0.4995
  646DECAN   C2 6442   4.892   1.443   6.884 -0.5620  0.6259 -0.6350
  646DECAN   C3 6443   4.897   1.590   6.928  0.2733  0.3460  0.2199
  646DECAN   C4 6444   4.764   1.643   6.985  0.2227 -0.3759  0.7962
  646DECAN   C5 6445   4.752   1.773   7.065  0.1875  0.0028  0.1842
  646DECAN   C6 6446   4.887   1.812   7.129  0.2442  0.0491  0.0367
  646DECAN   C7 6447   4.881   1.945   7.206 -0.5774 -0.1094  0.2519
  646DECAN   C8 6448   5.017   2.014   7.193 -0.5873 -0.0520  0.4620
  646DECAN   C9 6449   5.056   2.076   7.058  0.2594 -0.2335  0.6128
  646DECAN  C10 6450   5.207   2.104   7.058  0.2144  0.0199  0.1938
  647DECAN   C1 6451   6.836  10.610   7.282  0.4488  0.2974  0.4205
  647DECAN   C2 6452   6.989  10.614   7.269  0.4416 -0.1483  0.1552
  647DECAN   C3 6453   7.062  10.576   7.138  0.6928  0.0405  0.2381
  647DECAN   C4 6454   7.029  10.441   7.072 -0.1786  0.4968 -0.2805
  647DECAN   C5 6455   6.886  10.423   7.018 -0.2351 -0.0786  0.0470
  647DECAN   C6 6456   6.850  10.280   6.972 -0.0003 -0.0557 -0.2103
  647DECAN   C7 6457   6.883  10.229   6.830  0.3575 -0.5752  0.0572
  647DECAN   C8 6458   6.835  10.083   6.813 -0.1603 -0.4168  0.1341
  647DECAN   C9 6459   6.872  10.022   6.677  0.4312 -0.5080  0.3340
  647DECAN  C10 6460   7.023   9.995   6.658  0.6493  0.7025  0.2573
  648DECAN   C1 6461   1.362   6.859  10.568  0.5342  0.2619  0.4475
  648DECAN   C2 6462   1.432   6.846  10.431 -0.2365 -0.2817  0.0991
  648DECAN   C3 6463   1.568   6.773  10.443 -0.3069 -0.4217  0.0567
  648DECAN   C4 6464   1.653   6.780  10.315  0.2614  0.3308  0.4624
  648DECAN   C5 6465   1.790   6.714  10.335  0.0175 -0.3127  0.0716
  648DECAN   C6 6466   1.895   6.712  10.223 -0.4462 -0.4951 -0.3610
  648DECAN   C7 6467   2.024   6.635  10.260 -0.2758 -0.1109 -0.1498
  648DECAN   C8 6468   2.109   6.589  10.140 -0.0815  0.3267 -0.1814
  648DECAN   C9 6469   2.240   6.531  10.195 -0.3674 -0.1055  0.0432
  648DECAN  C10 6470   2.360   6.517  10.100 -0.3887  0.4941 -0.0742
  649DECAN   C1 6471   6.397   7.220   4.465  0.0498  0.3109 -0.1702
  649DECAN   C2 6472   6.510   7.284   4.547  0.0338 -0.4675  0.4751
  649DECAN   C3 6473   6.452   7.339   4.679  0.2084 -0.2201  0.4503
  649DECAN   C4 6474   6.324   7.421   4.653  0.4868  0.0742  0.0018
  649DECAN   C5 6475   6.259   7.477   4.781 -0.1865  0.1925 -0.3884
  649DECAN   C6 6476   6.153   7.582   4.742 -0.7035 -0.2609 -0.2122
  649DECAN   C7 6477   6.083   7.667   4.850  0.3244  0.0205  0.2550
  649DECAN   C8 6478   6.021   7.792   4.785 -0.0420 -0.3918 -0.2000
  649DECAN   C9 6479   5.970   7.891   4.891  0.0033 -0.4324 -0.1407
  649DECAN  C10 6480   5.859   7.992   4.859  0.0879 -0.0099  0.8431
  650DECAN   C1 6481   8.804   1.658  12.803  0.2353  0.2223 -0.3307
  650DECAN   C2 6482   8.865   1.797  12.779  0.1376  0.2361 -0.4998
  650DECAN   C3 6483   8.944   1.848  12.901  0.9657 -0.9625 -0.5197
  650DECAN   C4 6484   9.040   1.964  12.869  0.2381 -0.2994 -0.3415
  650DECAN   C5 6485   9.146   1.962  12.980  0.2208 -0.5343 -0.3268
  650DECAN   C6 6486   9.099   1.949  13.126  0.6699  0.0385 -0.1279
  650DECAN   C7 6487   9.188   2.004  13.240  0.3209  0.2607  0.0416
  650DECAN   C8 6488   9.137   1.969  13.381  0.5853 -0.3869 -0.0212
  650DECAN   C9 6489   9.195   2.069  13.483 -0.0920  0.4199 -0.4150
  650DECAN  C10 6490   9.150   2.060  13.630  0.0922 -0.4344 -0.4058
  651DECAN   C1 6491   7.869   8.268  14.768 -0.2481 -0.4941  0.5059
  651DECAN   C2 6492   7.805   8.135  14.722 -0.3617 -0.2709  0.0135
  651DECAN   C3 6493   7.897   8.013  14.704 -0.1648 -0.0710 -0.3450
  651DECAN   C4 6494   7.815   7.883  14.692 -0.1489 -0.0558 -0.6364
  651DECAN   C5 6495   7.910   7.762  14.695 -0.6250 -0.4245 -0.2546
  651DECAN   C6 6496   7.997   7.764  14.822 -0.4265 -0.3976 -0.3906
  651DECAN   C7 6497   8.048   7.627  14.869 -0.4453 -0.2037  0.2089
  651DECAN   C8 6498   8.144   7.641  14.989  0.0589  0.8026 -0.2994
  651DECAN   C9 6499   8.162   7.511  15.069 -0.0720  0.8849 -0.1349
  651DECAN  C10 6500   8.304   7.475  15.116 -0.0871  0.3084 -0.5298
  652DECAN   C1 6501   3.004  10.408  10.074  0.4561  0.4039  0.0882
  652DECAN   C2 6502   3.018  10.354   9.930  0.3859  0.0558  0.2111
  652DECAN   C3 6503   2.921  10.416   9.827  0.5373 -0.2541 -0.1198
  652DECAN   C4 6504   2.944  10.408   9.675 -0.2142  0.2891 -0.2708
  652DECAN   C5 6505   2.926  10.268   9.613  0.0160  0.0160  0.2701
  652DECAN   C6 6506   2.934  10.254   9.460  0.3140 -0.2267  0.3081
  652DECAN   C7 6507   2.875  10.117   9.419 -0.4258  0.1240  0.1889
  652DECAN   C8 6508   2.913  10.063   9.280  0.2385  0.0287  0.4047
  652DECAN   C9 6509   3.058  10.023   9.246  0.1034 -0.0172 -0.1262
  652DECAN  C10 6510   3.102   9.993   9.102 -0.0023  0.3748 -0.2413
  653DECAN   C1 6511  10.422   3.664  12.335  0.5829  0.2764 -0.2534
  653DECAN   C2 6512  10.391   3.514  12.327 -0.1281  0.3708  0.5520
  653DECAN   C3 6513  10.439   3.439  12.452  0.5363 -0.6112 -0.2736
  653DECAN   C4 6514  10.391   3.292  12.455  0.4419 -0.5767 -0.0212
  653DECAN   C5 6515  10.351   3.240  12.315 -0.1716 -0.4799  0.1170
  653DECAN   C6 6516  10.347   3.087  12.296  0.3412 -0.4765 -0.0299
  653DECAN   C7 6517  10.480   3.012  12.315  0.6400 -0.1788 -0.9429
  653DECAN   C8 6518  10.462   2.867  12.268 -0.2239 -0.5179  0.4023
  653DECAN   C9 6519  10.585   2.776  12.288  0.5443  0.2889 -0.5555
  653DECAN  C10 6520  10.563   2.649  12.203 -0.0744  0.3289 -0.4606
  654DECAN   C1 6521   8.569   3.751   4.949 -0.2145  0.1668 -0.2699
  654DECAN   C2 6522   8.523   3.652   5.058 -0.3468  0.7963  0.2528
  654DECAN   C3 6523   8.429   3.543   5.003 -0.2144  0.4034  0.7976
  654DECAN   C4 6524   8.285   3.590   4.976 -0.0469  0.4673 -0.0207
  654DECAN   C5 6525   8.194   3.468   4.954 -0.0184  0.4636 -0.1223
  654DECAN   C6 6526   8.053   3.515   4.913 -0.5048  0.1480  1.1392
  654DECAN   C7 6527   7.963   3.390   4.900  0.3460 -0.3938  0.3355
  654DECAN   C8 6528   8.017   3.287   4.800 -0.0216 -0.4478  0.1897
  654DECAN   C9 6529   8.161   3.240   4.831  0.1848 -0.2552 -0.4713
  654DECAN  C10 6530   8.259   3.207   4.716  0.5580  0.2299 -0.2965
  655DECAN   C1 6531   8.842  10.726   9.001 -0.5284 -0.2191 -0.4240
  655DECAN   C2 6532   8.817  10.873   8.965 -0.1642  0.1338  0.7415
  655DECAN   C3 6533   8.929  10.969   9.012 -0.1231  0.4075  0.0913
  655DECAN   C4 6534   8.968  10.938   9.157 -0.1483 -0.3275 -0.0544
  655DECAN   C5 6535   9.102  10.992   9.210 -0.0182 -0.2886 -0.4223
  655DECAN   C6 6536   9.135  10.952   9.355  0.1176  0.6977 -0.1717
  655DECAN   C7 6537   9.263  11.016   9.410  0.3221  0.0224  0.1408
  655DECAN   C8 6538   9.298  10.989   9.558 -0.5355  0.0417  0.3529
  655DECAN   C9 6539   9.427  11.060   9.602 -0.7803  0.7796 -0.1111
  655DECAN  C10 6540   9.484  11.054   9.745 -0.3666  0.0868 -0.3031
  656DECAN   C1 6541   2.839   5.623   4.403 -0.4453 -0.0925  0.3121
  656DECAN   C2 6542   2.920   5.556   4.515  0.0557 -0.1496 -0.0833
  656DECAN   C3 6543   3.072   5.553   4.494  0.0945  0.5052  0.0791
  656DECAN   C4 6544   3.141   5.445   4.580 -0.1385  0.2147 -0.0974
  656DECAN   C5 6545   3.287   5.417   4.540 -0.1233  0.4063 -0.1750
  656DECAN   C6 6546   3.352   5.303   4.621 -0.2730  0.2445 -0.2813
  656DECAN   C7 6547   3.498   5.274   4.578 -0.3459 -0.4380 -0.0749
  656DECAN   C8 6548   3.552   5.145   4.640 -0.2772 -0.3327  0.0841
  656DECAN   C9 6549   3.661   5.080   4.553  0.0934  0.6520 -0.2002
  656DECAN  C10 6550   3.750   4.980   4.629 -0.2669  0.0772 -0.5183
  657DECAN   C1 6551   9.649   6.030  10.660  0.3471 -0.1190  0.0846
  657DECAN   C2 6552   9.704   6.174  10.662  0.0778 -0.0142  0.0236
  657DECAN   C3 6553   9.682   6.235  10.523 -0.1986 -0.3024 -0.0615
  657DECAN   C4 6554   9.532   6.248  10.489 -0.1769 -0.1057 -0.0865
  657DECAN   C5 6555   9.504   6.294  10.345  0.0995  0.2691 -0.0229
  657DECAN   C6 6556   9.570   6.428  10.308 -0.0475  0.5129  0.5863
  657DECAN   C7 6557   9.717   6.432  10.354  0.1252 -0.3109  0.1160
  657DECAN   C8 6558   9.792   6.565  10.338  0.2727 -0.4122 -0.0397
  657DECAN   C9 6559   9.931   6.550  10.404  0.2580 -1.0004 -0.1406
  657DECAN  C10 6560  10.018   6.468  10.307  0.5331 -0.6967 -0.1517
  658DECAN   C1 6561   5.360   7.195  12.916 -0.2864  0.0583  0.3948
  658DECAN   C2 6562   5.510   7.229  12.903 -0.4106  0.5011  0.0803
  658DECAN   C3 6563   5.594   7.187  13.026  0.6340 -0.0371 -0.8055
  658DECAN   C4 6564   5.746   7.203  13.013  0.6105  0.2049 -0.7757
  658DECAN   C5 6565   5.831   7.142  13.126 -0.3507  0.1766 -0.0598
  658DECAN   C6 6566   5.982   7.142  13.096 -0.1931 -0.4121  0.7076
  658DECAN   C7 6567   6.052   7.057  13.203  0.0015 -0.9636  0.1439
  658DECAN   C8 6568   6.200   7.029  13.174  0.2080  0.3211 -0.0560
  658DECAN   C9 6569   6.251   6.914  13.262  0.0362  0.2689 -0.0266
  658DECAN  C10 6570   6.401   6.918  13.295  0.0984 -0.3474 -0.2240
  659DECAN   C1 6571   8.271   5.304  11.384 -0.7131 -0.1867  0.1465
  659DECAN   C2 6572   8.320   5.270  11.526 -0.2741 -0.2849 -0.0258
  659DECAN   C3 6573   8.374   5.126  11.537  0.1900 -0.0904  0.2786
  659DECAN   C4 6574   8.406   5.101  11.686  0.9774  0.2869  0.1721
  659DECAN   C5 6575   8.286   5.085  11.780  0.5560  0.5302 -0.3213
  659DECAN   C6 6576   8.232   4.941  11.780  0.0598  0.7108  0.2492
  659DECAN   C7 6577   8.128   4.908  11.888 -0.3847  0.4421 -0.2556
  659DECAN   C8 6578   8.055   4.772  11.873  0.0920  0.1414  0.1205
  659DECAN   C9 6579   7.985   4.724  12.001  0.2114  0.3843  0.2784
  659DECAN  C10 6580   8.068   4.638  12.098 -0.1360 -0.2299  0.0367
  660DECAN   C1 6581   5.620   5.563  11.901 -0.3645  0.8150 -0.1604
  660DECAN   C2 6582   5.632   5.551  12.054  0.2334 -0.1184 -0.2732
  660DECAN   C3 6583   5.775   5.579  12.102  0.1690 -0.0188 -0.1369
  660DECAN   C4 6584   5.787   5.561  12.255 -0.0676  0.0413 -0.1119
  660DECAN   C5 6585   5.759   5.422  12.314 -0.1586  0.1131  0.0155
  660DECAN   C6 6586   5.733   5.420  12.466 -0.3545 -0.2662 -0.0225
  660DECAN   C7 6587   5.759   5.282  12.529  0.2366 -0.1575 -0.0270
  660DECAN   C8 6588   5.907   5.242  12.544  0.3719  0.2285 -0.3232
  660DECAN   C9 6589   5.984   5.334  12.641  0.1628 -0.1761  0.2264
  660DECAN  C10 6590   6.130   5.296  12.670 -0.0936 -0.7130  0.8503
  661DECAN   C1 6591   7.427   5.390   7.266  0.0217  0.1142  0.4073
  661DECAN   C2 6592   7.488   5.531   7.261  0.2133  0.0176 -0.0177
  661DECAN   C3 6593   7.640   5.531   7.280  0.2011 -0.0752  0.0810
  661DECAN   C4 6594   7.683   5.674   7.241 -0.0896 -0.0918 -0.3018
  661DECAN   C5 6595   7.602   5.789   7.304 -0.6546 -0.4120 -0.4326
  661DECAN   C6 6596   7.608   5.790   7.458  0.1077  0.0485 -0.4604
  661DECAN   C7 6597   7.556   5.923   7.515 -0.0198 -0.2167  0.0489
  661DECAN   C8 6598   7.408   5.960   7.491 -0.0468 -0.1311  0.3448
  661DECAN   C9 6599   7.367   6.069   7.591 -0.3592 -0.1797  0.2701
  661DECAN  C10 6600   7.227   6.129   7.565 -0.1277 -0.1042 -0.8242
  662DECAN   C1 6601   9.290   8.937   5.226 -0.4386  0.4296  0.0725
  662DECAN   C2 6602   9.164   8.887   5.154 -0.4064  0.0036  0.3069
  662DECAN   C3 6603   9.119   8.747   5.198  0.0385 -0.1811  0.1836
  662DECAN   C4 6604   8.966   8.726   5.208 -0.0250  0.3796  0.3788
  662DECAN   C5 6605   8.928   8.581   5.242  0.4817  0.0524 -0.4213
  662DECAN   C6 6606   8.825   8.524   5.143  0.0754 -0.0023  0.0312
  662DECAN   C7 6607   8.749   8.393   5.173  0.1952 -0.1258 -0.2002
  662DECAN   C8 6608   8.621   8.369   5.090 -0.3497 -0.0894  0.6179
  662DECAN   C9 6609   8.563   8.226   5.088 -0.2732 -0.1180  0.1887
  662DECAN  C10 6610   8.660   8.121   5.032 -0.5896 -0.4216  0.2109
  663DECAN   C1 6611   8.465   9.850   4.569 -0.5853  0.4311  0.8990
  663DECAN   C2 6612   8.431   9.718   4.499 -0.2077  0.6331  0.3278
  663DECAN   C3 6613   8.548   9.618   4.499 -0.1265  0.7209 -0.2105
  663DECAN   C4 6614   8.525   9.504   4.398 -0.8853  0.0721  0.6789
  663DECAN   C5 6615   8.611   9.377   4.412  0.1149  0.6647 -0.0077
  663DECAN   C6 6616   8.596   9.284   4.290 -0.2738 -0.1414  0.6414
  663DECAN   C7 6617   8.455   9.258   4.236 -0.0696  0.7747 -0.3750
  663DECAN   C8 6618   8.434   9.171   4.110 -0.4193 -0.0532  0.2466
  663DECAN   C9 6619   8.298   9.181   4.041 -0.2747  0.0243 -0.0254
  663DECAN  C10 6620   8.187   9.137   4.138  0.1185  0.1717  0.4957
  664DECAN   C1 6621  10.201   1.527   9.207 -0.3902  0.0184 -0.7549
  664DECAN   C2 6622  10.192   1.621   9.329 -0.0013 -0.3374 -0.4506
  664DECAN   C3 6623  10.050   1.677   9.348  0.2353  0.1171 -0.0157
  664DECAN   C4 6624  10.041   1.811   9.424 -0.1513  0.3183 -0.4162
  664DECAN   C5 6625  10.120   1.929   9.366  0.2879 -0.0491 -0.5632
  664DECAN   C6 6626  10.272   1.900   9.371  0.2715  0.0471  0.8850
  664DECAN   C7 6627  10.361   2.022   9.340 -0.1814  0.1247 -0.1634
  664DECAN   C8 6628  10.510   1.990   9.319 -0.1823  0.1599 -0.2285
  664DECAN   C9 6629  10.594   2.109   9.270  0.7396 -0.3680  0.0419
  664DECAN  C10 6630  10.576   2.219   9.377 -0.4174 -0.0242 -0.4878
  665DECAN   C1 6631   1.940   7.379   7.248 -0.4460  0.5997 -0.2145
  665DECAN   C2 6632   1.844   7.302   7.155  0.5519 -0.2854 -0.5275
  665DECAN   C3 6633   1.861   7.351   7.009  0.0106  0.2686 -0.4097
  665DECAN   C4 6634   1.808   7.262   6.896 -0.1003 -0.4343  0.1839
  665DECAN   C5 6635   1.854   7.306   6.756 -0.2059  0.3650  0.3963
  665DECAN   C6 6636   1.781   7.215   6.655  0.1108  0.4223  0.1145
  665DECAN   C7 6637   1.641   7.273   6.632 -0.0783  0.1420  0.5606
  665DECAN   C8 6638   1.561   7.185   6.535 -0.2178  0.3809  0.4568
  665DECAN   C9 6639   1.637   7.166   6.402 -0.3567 -0.3368  0.4753
  665DECAN  C10 6640   1.586   7.070   6.292  0.0175  0.0173 -0.0128
  666DECAN   C1 6641   9.374   8.724   3.867  0.1491 -0.7849  0.0806
  666DECAN   C2 6642   9.244   8.760   3.940  0.0680 -0.6306 -0.1370
  666DECAN   C3 6643   9.196   8.657   4.045 -0.1139 -0.2225  0.1867
  666DECAN   C4 6644   9.259   8.648   4.185  0.6225 -0.0316 -0.1301
  666DECAN   C5 6645   9.273   8.781   4.261  0.0157  0.2557 -0.5126
  666DECAN   C6 6646   9.352   8.770   4.393 -0.0794 -0.2176 -0.4920
  666DECAN   C7 6647   9.379   8.904   4.465  0.4468 -0.5116 -0.1321
  666DECAN   C8 6648   9.456   8.899   4.598  0.4255 -0.0451 -0.1003
  666DECAN   C9 6649   9.394   8.796   4.694  0.0553  0.0856 -0.1960
  666DECAN  C10 6650   9.247   8.811   4.737  0.2140 -0.0356  0.3897
  667DECAN   C1 6651   6.540   9.931   7.493 -0.5194  0.5204 -0.4415
  667DECAN   C2 6652   6.601  10.016   7.380  0.1062  0.1372 -0.3997
  667DECAN   C3 6653   6.493  10.089   7.298 -0.1892 -0.1797 -0.2934
  667DECAN   C4 6654   6.398  10.180   7.379  0.5282 -0.2595  0.6530
  667DECAN   C5 6655   6.447  10.320   7.421  0.1936 -0.1108  0.5514
  667DECAN   C6 6656   6.336  10.417   7.465  0.0612  0.1340 -0.3128
  667DECAN   C7 6657   6.246  10.462   7.349  0.0126 -0.2428 -0.4240
  667DECAN   C8 6658   6.322  10.486   7.217  0.2016  0.2091 -0.2343
  667DECAN   C9 6659   6.357  10.633   7.185 -0.8918  0.4886 -0.1838
  667DECAN  C10 6660   6.451  10.657   7.065 -0.0050 -0.6157  0.2687
  668DECAN   C1 6661   6.629   0.253  12.829  0.7353  0.5422  0.3683
  668DECAN   C2 6662   6.568   0.149  12.924  0.5132  0.3971  0.0687
  668DECAN   C3 6663   6.633   0.009  12.923  0.3381  0.3102  0.5195
  668DECAN   C4 6664   6.577  11.162  13.033  0.6317 -0.1308  0.3052
  668DECAN   C5 6665   6.663  11.037  13.061  0.5607 -0.3299 -0.3609
  668DECAN   C6 6666   6.804  11.064  13.117  0.4180 -0.3957  0.0356
  668DECAN   C7 6667   6.904  10.946  13.117  0.3636 -0.4422 -0.0597
  668DECAN   C8 6668   7.047  10.955  13.172  0.4535 -0.0170 -0.3521
  668DECAN   C9 6669   7.120  10.820  13.157  0.6768  0.0092  0.4366
  668DECAN  C10 6670   7.144  10.787  13.008  0.5772  0.5892  0.2924
  669DECAN   C1 6671   3.372   3.822   7.236  0.0139  0.2909  0.3066
  669DECAN   C2 6672   3.340   3.672   7.228  0.1795  0.2776 -0.1431
  669DECAN   C3 6673   3.378   3.586   7.350 -0.1007 -0.1076 -0.3241
  669DECAN   C4 6674   3.337   3.437   7.349  0.5500 -0.2900 -0.9094
  669DECAN   C5 6675   3.412   3.349   7.449 -0.4466  0.4042  0.4844
  669DECAN   C6 6676   3.371   3.200   7.450  0.0692  0.2524 -0.2769
  669DECAN   C7 6677   3.468   3.115   7.535  0.0608  0.2164 -0.3037
  669DECAN   C8 6678   3.435   2.965   7.524  0.2025  0.1731 -0.1337
  669DECAN   C9 6679   3.288   2.932   7.555  0.3057 -0.4849 -0.3303
  669DECAN  C10 6680   3.240   2.786   7.567 -0.7217 -0.0814  0.6818
  670DECAN   C1 6681   4.283   4.342   5.663 -0.5422 -0.3037  0.2034
  670DECAN   C2 6682   4.241   4.217   5.742 -0.6757  0.0606  0.7115
  670DECAN   C3 6683   4.091   4.188   5.723 -0.4747 -0.3190 -0.3711
  670DECAN   C4 6684   4.047   4.067   5.808 -0.1371 -0.0942  0.1270
  670DECAN   C5 6685   4.045   4.115   5.955 -0.3690 -0.3941  0.2220
  670DECAN   C6 6686   3.968   4.246   5.979 -0.4502 -0.3767 -0.1342
  670DECAN   C7 6687   3.942   4.277   6.127  0.2428  0.1752 -0.1206
  670DECAN   C8 6688   3.859   4.406   6.138 -0.4292 -0.2512 -0.1369
  670DECAN   C9 6689   3.827   4.459   6.279  0.2422 -0.1017 -0.0398
  670DECAN  C10 6690   3.948   4.512   6.358  0.1694  0.0148 -0.0073
  671DECAN   C1 6691   6.612   9.145   7.514 -0.0145 -0.1208  0.3021
  671DECAN   C2 6692   6.609   9.050   7.634  0.2683 -0.7921 -0.2147
  671DECAN   C3 6693   6.475   9.074   7.707  0.2585  0.0904 -0.5134
  671DECAN   C4 6694   6.440   9.224   7.710 -0.5590 -0.0897 -0.7642
  671DECAN   C5 6695   6.305   9.261   7.775 -0.0783  0.4624 -0.0749
  671DECAN   C6 6696   6.288   9.414   7.786 -0.1545  0.4153  0.5046
  671DECAN   C7 6697   6.355   9.498   7.676 -0.1452 -0.2221  0.0234
  671DECAN   C8 6698   6.294   9.448   7.543  0.5131 -0.7826 -0.0764
  671DECAN   C9 6699   6.304   9.560   7.439  0.0884 -0.6558  0.0182
  671DECAN  C10 6700   6.213   9.531   7.318  0.2567  0.1167 -0.2977
  672DECAN   C1 6701  10.106   0.904  13.617 -0.5520  0.4541 -0.1477
  672DECAN   C2 6702  10.050   0.822  13.735  0.4309 -0.0424 -0.0173
  672DECAN   C3 6703   9.907   0.858  13.781  0.3706 -0.1847 -0.0909
  672DECAN   C4 6704   9.844   0.746  13.865  0.6659 -0.0681  0.2906
  672DECAN   C5 6705   9.823   0.609  13.797  0.1471  0.0535  0.2093
  672DECAN   C6 6706   9.736   0.516  13.884 -0.1685 -0.0759 -0.2396
  672DECAN   C7 6707   9.711   0.391  13.797 -0.5601 -0.0069 -0.2292
  672DECAN   C8 6708   9.623   0.293  13.876  0.4543 -0.3803  0.4588
  672DECAN   C9 6709   9.573   0.177  13.788 -0.4951  0.1751  0.2582
  672DECAN  C10 6710   9.496   0.210  13.658 -0.2242 -0.2734 -0.0178
  673DECAN   C1 6711   3.807   9.611   7.460 -0.6146 -0.0394 -0.3064
  673DECAN   C2 6712   3.858   9.530   7.580 -0.0498  0.3337 -0.2906
  673DECAN   C3 6713   3.770   9.551   7.705  0.0906  0.4755 -0.2155
  673DECAN   C4 6714   3.814   9.462   7.823  0.0076 -0.1340 -0.6424
  673DECAN   C5 6715   3.739   9.471   7.957  0.5861 -0.0713 -0.3158
  673DECAN   C6 6716   3.771   9.596   8.039 -0.4323 -0.2755  0.4143
  673DECAN   C7 6717   3.911   9.609   8.102 -0.2334  0.3149 -0.1437
  673DECAN   C8 6718   3.945   9.498   8.203  0.0579  0.3569 -0.1924
  673DECAN   C9 6719   4.089   9.510   8.256  0.0146  0.1867 -0.0374
  673DECAN  C10 6720   4.202   9.518   8.152 -0.0711  0.0125 -0.1426
  674DECAN   C1 6721   6.688   0.869   7.328 -0.1184 -0.9591  0.4604
  674DECAN   C2 6722   6.765   0.987   7.391  0.1143 -0.6594 -0.3740
  674DECAN   C3 6723   6.700   1.039   7.520 -0.2564 -0.3541 -0.6819
  674DECAN   C4 6724   6.559   1.101   7.519  0.0539  0.3823  0.0197
  674DECAN   C5 6725   6.508   1.161   7.651 -0.1258  0.6315 -0.1600
  674DECAN   C6 6726   6.570   1.298   7.683  0.5559  0.3520 -0.2741
  674DECAN   C7 6727   6.515   1.348   7.818 -0.0890  0.0843 -0.4327
  674DECAN   C8 6728   6.367   1.375   7.788 -0.2810 -0.6413 -0.1622
  674DECAN   C9 6729   6.352   1.494   7.691  0.0068 -0.7843 -0.3856
  674DECAN  C10 6730   6.209   1.552   7.687  0.3286  0.0340 -0.3304
  675DECAN   C1 6731   2.256   4.538   9.515 -0.4257  0.3372  0.3453
  675DECAN   C2 6732   2.123   4.554   9.439 -0.2232  0.1097 -0.0578
  675DECAN   C3 6733   1.996   4.510   9.513 -0.1219  0.4654  0.3355
  675DECAN   C4 6734   2.004   4.365   9.564  0.1510  0.1488 -0.5776
  675DECAN   C5 6735   1.884   4.307   9.642  0.5462 -0.1840 -0.2083
  675DECAN   C6 6736   1.874   4.155   9.659 -0.1770 -0.1581 -0.3627
  675DECAN   C7 6737   1.773   4.100   9.762 -0.0757 -0.1109 -0.2383
  675DECAN   C8 6738   1.633   4.080   9.701  0.1625 -0.6154 -0.6299
  675DECAN   C9 6739   1.544   3.976   9.773 -0.4100  0.1199 -0.2681
  675DECAN  C10 6740   1.600   3.834   9.759  0.1913  0.3415 -0.1390
  676DECAN   C1 6741   2.277  10.587   8.597 -0.6663  0.3237  0.3297
  676DECAN   C2 6742   2.298  10.681   8.478  0.6256 -0.1171  0.1888
  676DECAN   C3 6743   2.446  10.719   8.456  0.5068  0.4405  0.3494
  676DECAN   C4 6744   2.458  10.789   8.320 -0.1351 -0.0917  0.0135
  676DECAN   C5 6745   2.603  10.799   8.267 -0.3858 -0.4928 -0.7615
  676DECAN   C6 6746   2.611  10.908   8.158  0.0623  0.1491 -0.0925
  676DECAN   C7 6747   2.576  10.872   8.013 -0.1537 -0.4330  0.1009
  676DECAN   C8 6748   2.534  10.983   7.915  0.0798 -0.5103 -0.0908
  676DECAN   C9 6749   2.518  10.949   7.766 -0.4819  0.0536 -0.1674
  676DECAN  C10 6750   2.640  10.880   7.700 -0.2999  0.0086  0.2136
  677DECAN   C1 6751   5.990   9.744  13.301 -0.7217 -0.4329 -0.6563
  677DECAN   C2 6752   6.092   9.859  13.313 -1.1322 -0.0646 -0.6599
  677DECAN   C3 6753   6.120   9.930  13.179 -0.7397  0.0287 -0.5272
  677DECAN   C4 6754   6.214  10.047  13.213 -0.7353 -0.0023 -0.4298
  677DECAN   C5 6755   6.224  10.154  13.103 -0.4543 -0.0108 -0.4141
  677DECAN   C6 6756   6.083  10.216  13.091 -0.3740  0.1802 -0.3805
  677DECAN   C7 6757   6.068  10.319  12.977 -0.2009  0.0858 -0.4892
  677DECAN   C8 6758   5.934  10.393  12.970 -0.2744 -0.0226 -0.2346
  677DECAN   C9 6759   5.913  10.496  12.857 -0.2224 -0.1856 -0.3922
  677DECAN  C10 6760   5.778  10.566  12.837  0.0392  0.3101 -0.4355
  678DECAN   C1 6761   6.800  10.207   4.075  0.2561  0.3117  0.1445
  678DECAN   C2 6762   6.686  10.304   4.111 -0.0507 -0.1940  0.5668
  678DECAN   C3 6763   6.609  10.264   4.238 -0.3606 -0.1232  0.4036
  678DECAN   C4 6764   6.700  10.268   4.362  0.2677  0.8648 -0.0722
  678DECAN   C5 6765   6.625  10.208   4.483  0.2500  0.0080 -0.4975
  678DECAN   C6 6766   6.492  10.277   4.517  0.1857 -0.3062 -0.1063
  678DECAN   C7 6767   6.403  10.206   4.621 -0.1037 -0.1314 -0.2320
  678DECAN   C8 6768   6.269  10.279   4.642 -0.2006 -0.3458 -0.0937
  678DECAN   C9 6769   6.193  10.258   4.774 -0.2269  0.0998 -0.0367
  678DECAN  C10 6770   6.282  10.300   4.892 -0.1460  0.1319 -0.1094
  679DECAN   C1 6771   3.908   3.007   7.777  0.0296  0.3021 -0.1545
  679DECAN   C2 6772   3.789   2.939   7.847  0.2130  0.3164  0.1732
  679DECAN   C3 6773   3.713   3.042   7.932 -0.2801  0.0611  0.0409
  679DECAN   C4 6774   3.786   3.113   8.047 -0.0643 -0.1225  0.0181
  679DECAN   C5 6775   3.698   3.212   8.124  0.4560  0.1581  0.2576
  679DECAN   C6 6776   3.782   3.293   8.225  0.2451  0.3358  0.2919
  679DECAN   C7 6777   3.688   3.388   8.303 -0.1496  0.1909 -0.0029
  679DECAN   C8 6778   3.766   3.466   8.409 -0.0798  0.2818 -0.1213
  679DECAN   C9 6779   3.694   3.566   8.502  0.1616  0.3604 -0.0168
  679DECAN  C10 6780   3.577   3.501   8.578 -0.0392  0.5921 -0.1246
  680DECAN   C1 6781   6.228   0.918  14.883  0.5929  0.1534 -0.4060
  680DECAN   C2 6782   6.115   1.005  14.824  0.1957 -0.7069 -0.9450
  680DECAN   C3 6783   5.983   1.015  14.903  0.5537  0.1499 -0.4367
  680DECAN   C4 6784   5.890   0.892  14.901  0.3090  0.3209  0.1672
  680DECAN   C5 6785   5.740   0.918  14.920  0.1106 -0.2005 -0.6430
  680DECAN   C6 6786   5.666   0.783  14.927 -0.4818  0.1389 -0.1394
  680DECAN   C7 6787   5.519   0.805  14.966 -0.5621 -0.3478 -0.1602
  680DECAN   C8 6788   5.463   0.691  15.053  0.2861 -0.2178  0.5659
  680DECAN   C9 6789   5.499   0.547  15.010 -0.0044 -0.2219  0.3340
  680DECAN  C10 6790   5.392   0.453  15.068 -0.6150  0.0227 -0.3819
  681DECAN   C1 6791   3.375   1.038   4.464  0.0365 -0.1881 -0.2026
  681DECAN   C2 6792   3.226   1.019   4.432  0.0122  0.3060 -0.4026
  681DECAN   C3 6793   3.153   0.927   4.531  0.0739  0.3889 -0.2808
  681DECAN   C4 6794   3.000   0.914   4.516  0.1194 -0.1422 -0.3260
  681DECAN   C5 6795   2.936   1.044   4.464  0.3741 -0.0829 -0.4950
  681DECAN   C6 6796   2.791   1.012   4.423  0.0932  0.6729 -0.1097
  681DECAN   C7 6797   2.679   1.031   4.526  0.2357 -0.1072  0.1891
  681DECAN   C8 6798   2.649   0.923   4.632  0.3458 -0.2131  0.1124
  681DECAN   C9 6799   2.508   0.933   4.694  0.0506  0.0141 -0.5882
  681DECAN  C10 6800   2.458   0.823   4.789  0.5398  0.0427 -0.2943
  682DECAN   C1 6801   4.540   4.441  12.155  0.3677 -0.6677  0.0379
  682DECAN   C2 6802   4.547   4.339  12.040  0.1248 -0.1257 -0.4630
  682DECAN   C3 6803   4.617   4.208  12.081 -0.6873 -0.4609 -0.1002
  682DECAN   C4 6804   4.610   4.103  11.968  0.3410 -0.5565 -0.0912
  682DECAN   C5 6805   4.659   3.959  11.990  0.0238 -0.6283  0.1607
  682DECAN   C6 6806   4.673   3.891  11.853 -0.0627 -0.1814 -0.0723
  682DECAN   C7 6807   4.742   3.754  11.865 -0.3458 -0.3112  0.0855
  682DECAN   C8 6808   4.893   3.754  11.892 -0.3372 -0.8901  0.0574
  682DECAN   C9 6809   4.955   3.618  11.928 -0.3871 -0.7749  0.5946
  682DECAN  C10 6810   5.106   3.617  11.961 -0.1699  0.3411 -0.3132
  683DECAN   C1 6811   8.895   5.665  12.655 -0.3265 -0.6498 -0.0893
  683DECAN   C2 6812   9.022   5.585  12.689 -0.1755 -0.3463  0.0660
  683DECAN   C3 6813   9.046   5.557  12.838 -0.3099  0.6345  0.2753
  683DECAN   C4 6814   9.173   5.472  12.861 -0.2629  0.6588  0.1110
  683DECAN   C5 6815   9.299   5.517  12.786 -0.3275  0.0333 -0.3756
  683DECAN   C6 6816   9.410   5.412  12.809 -0.2301  0.3144  0.4642
  683DECAN   C7 6817   9.348   5.273  12.834  0.1918  0.1831  0.8001
  683DECAN   C8 6818   9.460   5.174  12.871  0.5993  0.3323 -0.0015
  683DECAN   C9 6819   9.584   5.171  12.780  0.3447  0.1388 -0.3493
  683DECAN  C10 6820   9.680   5.056  12.813 -0.2812 -0.4425 -0.5440
  684DECAN   C1 6821   7.705  10.653  12.166  0.1186 -0.3456  0.2426
  684DECAN   C2 6822   7.684  10.747  12.286  0.1502  0.4368 -0.3553
  684DECAN   C3 6823   7.789  10.744  12.399 -0.2255  0.2292 -0.0092
  684DECAN   C4 6824   7.770  10.833  12.523  0.1072 -0.4126  0.5122
  684DECAN   C5 6825   7.626  10.840  12.575 -0.2331 -0.1032 -0.4515
  684DECAN   C6 6826   7.581  10.964  12.654  0.5485 -0.2565  0.2362
  684DECAN   C7 6827   7.444  10.946  12.723  0.2726  0.1993 -0.1883
  684DECAN   C8 6828   7.403  11.075  12.796 -0.2809 -0.2919  0.3719
  684DECAN   C9 6829   7.473  11.088  12.932  0.5329  0.0647 -0.0772
  684DECAN  C10 6830   7.491  11.235  12.976  0.2825  0.0988 -0.0904
  685DECAN   C1 6831   3.049   5.900   8.884  0.3106  0.3982  0.1672
  685DECAN   C2 6832   3.181   5.976   8.905  0.2971  0.4823 -0.0476
  685DECAN   C3 6833   3.306   5.887   8.922 -0.3065 -0.2228  0.7983
  685DECAN   C4 6834   3.434   5.972   8.927 -0.3082 -0.2140  0.6978
  685DECAN   C5 6835   3.557   5.881   8.918  0.1729  0.4353  0.6112
  685DECAN   C6 6836   3.691   5.953   8.940  0.0667  0.7377  0.2774
  685DECAN   C7 6837   3.738   5.964   9.087 -0.2008 -0.0503  0.4254
  685DECAN   C8 6838   3.850   6.069   9.096 -0.1169 -0.1407  0.4439
  685DECAN   C9 6839   3.970   6.019   9.013 -0.6715 -0.2237 -0.3174
  685DECAN  C10 6840   4.099   6.099   9.037 -0.7064 -0.5183  0.9245
  686DECAN   C1 6841   7.338   1.365   8.377  0.0674 -0.4210 -0.4340
  686DECAN   C2 6842   7.304   1.233   8.306 -0.5865 -0.6244  0.2364
  686DECAN   C3 6843   7.420   1.176   8.222 -0.5217 -0.0864 -0.0464
  686DECAN   C4 6844   7.402   1.034   8.165  0.4342 -0.1526 -0.2140
  686DECAN   C5 6845   7.507   0.977   8.068  0.1058  0.4885 -0.9517
  686DECAN   C6 6846   7.465   0.839   8.015 -0.1003  0.0380  0.3576
  686DECAN   C7 6847   7.557   0.780   7.906  0.5769  0.3272  0.7663
  686DECAN   C8 6848   7.567   0.847   7.768 -0.0632 -0.0432  0.5398
  686DECAN   C9 6849   7.648   0.977   7.775 -0.6308  0.3570 -0.2013
  686DECAN  C10 6850   7.776   0.974   7.861 -0.9033  0.2421  0.2025
  687DECAN   C1 6851   7.052   4.831   8.710 -0.1919 -0.1724 -0.2869
  687DECAN   C2 6852   7.003   4.948   8.797  0.0328 -0.0216 -0.3623
  687DECAN   C3 6853   6.867   5.011   8.761 -0.2107 -0.4792 -0.2487
  687DECAN   C4 6854   6.869   5.060   8.615  0.1577 -0.1530 -0.1346
  687DECAN   C5 6855   6.728   5.070   8.554  0.0807 -0.1714  0.0395
  687DECAN   C6 6856   6.719   5.132   8.413 -0.6225 -0.5628 -0.0913
  687DECAN   C7 6857   6.574   5.159   8.370 -0.2637  0.4386 -0.7125
  687DECAN   C8 6858   6.501   5.279   8.433 -0.3761  0.1118 -0.2087
  687DECAN   C9 6859   6.499   5.302   8.585  0.4233  0.0372 -0.1862
  687DECAN  C10 6860   6.434   5.431   8.637  0.1099 -0.2313  0.0922
  688DECAN   C1 6861   6.615   6.943  12.690  0.4774 -0.2602  0.0910
  688DECAN   C2 6862   6.576   7.031  12.811 -0.0606  0.2182 -0.4210
  688DECAN   C3 6863   6.493   7.155  12.773 -0.1923  0.0919 -0.5490
  688DECAN   C4 6864   6.344   7.121  12.790 -0.0337 -0.4325 -0.1555
  688DECAN   C5 6865   6.245   7.234  12.754  0.0685 -0.2564  0.1145
  688DECAN   C6 6866   6.100   7.195  12.718  0.1109 -0.3967  0.0941
  688DECAN   C7 6867   6.005   7.304  12.665  0.1583 -0.4690 -0.1413
  688DECAN   C8 6868   5.868   7.242  12.635  0.2068 -0.4465 -0.4131
  688DECAN   C9 6869   5.773   7.355  12.590 -0.1882 -0.5967  0.0398
  688DECAN  C10 6870   5.791   7.424  12.454 -0.1232 -0.2526  0.2220
  689DECAN   C1 6871   3.438   3.250   6.499  0.4651  0.4012 -0.3804
  689DECAN   C2 6872   3.438   3.211   6.350  0.0926 -0.1728 -0.2321
  689DECAN   C3 6873   3.305   3.231   6.274  0.0931  0.5290 -0.0528
  689DECAN   C4 6874   3.291   3.183   6.129  0.6252  0.1898  0.0074
  689DECAN   C5 6875   3.311   3.033   6.100  0.0208  0.2066 -0.5090
  689DECAN   C6 6876   3.258   2.976   5.967  0.0941 -0.1075 -0.4060
  689DECAN   C7 6877   3.265   2.824   5.944  0.2885 -0.1631  0.0233
  689DECAN   C8 6878   3.403   2.784   5.889  0.2201 -0.2975 -0.0513
  689DECAN   C9 6879   3.394   2.656   5.804  0.1479 -0.6046  0.4151
  689DECAN  C10 6880   3.527   2.580   5.786  0.4431 -0.0867  0.4010
  690DECAN   C1 6881  10.156   9.581   6.648 -0.0529 -0.3570  0.3317
  690DECAN   C2 6882  10.189   9.431   6.633 -0.6767 -0.4721  0.0592
  690DECAN   C3 6883  10.149   9.351   6.758  0.0409 -0.1425  0.5099
  690DECAN   C4 6884  10.181   9.200   6.754 -0.1235 -0.1670 -0.0973
  690DECAN   C5 6885  10.166   9.135   6.893 -0.0786 -0.3901 -0.1971
  690DECAN   C6 6886  10.026   9.141   6.957 -0.0979  0.1110 -0.2849
  690DECAN   C7 6887   9.962   9.282   6.951  0.0557  0.1852 -0.1902
  690DECAN   C8 6888   9.830   9.280   7.030 -0.1159  0.2554 -0.4743
  690DECAN   C9 6889   9.753   9.413   7.042 -0.0159  0.2932 -0.2409
  690DECAN  C10 6890   9.833   9.534   7.095  0.2059 -0.1820  0.5136
  691DECAN   C1 6891   7.436   8.216  12.260  0.3074 -0.4802 -0.1008
  691DECAN   C2 6892   7.396   8.337  12.173  0.8493 -0.0492  0.2389
  691DECAN   C3 6893   7.422   8.471  12.243  0.0896  0.0084  0.4174
  691DECAN   C4 6894   7.569   8.506  12.269 -0.0061  0.5924  0.1954
  691DECAN   C5 6895   7.582   8.634  12.354 -0.0360  0.4880  0.3568
  691DECAN   C6 6896   7.721   8.658  12.415  0.0721 -0.6731  0.5972
  691DECAN   C7 6897   7.724   8.788  12.497 -0.5979 -0.1782 -0.1450
  691DECAN   C8 6898   7.637   8.777  12.624 -0.0925  0.0403  0.2260
  691DECAN   C9 6899   7.687   8.873  12.733 -0.2365  0.6373 -0.2321
  691DECAN  C10 6900   7.611   8.856  12.866  0.5414  0.0814  0.1448
  692DECAN   C1 6901   7.599   5.058  14.451 -0.5857 -0.2621 -0.1991
  692DECAN   C2 6902   7.528   5.184  14.505  0.2042  0.2448 -0.3203
  692DECAN   C3 6903   7.393   5.203  14.433  0.2171  0.9522 -0.1640
  692DECAN   C4 6904   7.312   5.326  14.475 -0.5120  0.5429 -0.3584
  692DECAN   C5 6905   7.228   5.324  14.604 -0.0617 -0.0453 -0.0736
  692DECAN   C6 6906   7.178   5.460  14.656 -0.2613 -0.1084 -0.0993
  692DECAN   C7 6907   7.055   5.434  14.745 -0.2953 -0.4294 -0.2383
  692DECAN   C8 6908   6.921   5.461  14.673 -0.2545  0.2475 -0.0671
  692DECAN   C9 6909   6.799   5.410  14.753  0.1082 -0.5550 -0.0258
  692DECAN  C10 6910   6.819   5.261  14.787 -0.4238 -0.6281 -0.0294
  693DECAN   C1 6911   3.793   8.987  11.314  0.4639  0.0578 -0.1549
  693DECAN   C2 6912   3.674   9.053  11.242  0.1236  0.0964  0.4353
  693DECAN   C3 6913   3.574   8.949  11.186  0.3340 -0.1468  0.5110
  693DECAN   C4 6914   3.438   8.991  11.128  0.6000  0.1141  0.0702
  693DECAN   C5 6915   3.384   8.868  11.053  0.4950  0.4141 -0.3487
  693DECAN   C6 6916   3.276   8.900  10.948  0.0721 -0.4778 -0.2013
  693DECAN   C7 6917   3.148   8.958  11.010 -0.2960 -0.9016 -0.5526
  693DECAN   C8 6918   3.064   9.023  10.899 -0.4338 -0.1430 -0.0168
  693DECAN   C9 6919   3.153   9.134  10.839 -0.1101 -0.3425  0.0916
  693DECAN  C10 6920   3.283   9.087  10.772  0.0099  0.2455 -0.0929
  694DECAN   C1 6921   3.209   0.525   8.653  0.6339 -0.3522 -0.0699
  694DECAN   C2 6922   3.252   0.408   8.562  0.0117 -0.5224 -0.1532
  694DECAN   C3 6923   3.184   0.275   8.600 -0.7063 -0.2050 -0.3155
  694DECAN   C4 6924   3.197   0.166   8.493 -0.7457 -0.6013  0.0841
  694DECAN   C5 6925   3.327   0.083   8.507  0.1376  0.7739  0.1716
  694DECAN   C6 6926   3.447   0.124   8.420  0.2491 -0.2510 -0.1695
  694DECAN   C7 6927   3.576   0.043   8.443  0.1465 -0.4737 -0.3782
  694DECAN   C8 6928   3.686   0.086   8.344  0.2805  0.0324 -0.0145
  694DECAN   C9 6929   3.645   0.070   8.196 -0.1125  0.3937  0.0535
  694DECAN  C10 6930   3.759   0.130   8.112 -0.5229  0.3896 -0.5124
  695DECAN   C1 6931   7.622   3.291   6.267  0.1307  0.2215  0.6482
  695DECAN   C2 6932   7.737   3.282   6.164 -0.1055 -0.2224  0.4194
  695DECAN   C3 6933   7.845   3.173   6.179 -0.2634 -0.4164  0.1477
  695DECAN   C4 6934   7.936   3.204   6.299 -0.6738  0.4553  0.2440
  695DECAN   C5 6935   7.864   3.207   6.435 -0.2351 -0.0575  0.4921
  695DECAN   C6 6936   7.964   3.210   6.553 -0.0803  0.0781  0.3579
  695DECAN   C7 6937   7.900   3.188   6.691 -0.8783  0.5001  0.0621
  695DECAN   C8 6938   7.994   3.200   6.812 -0.0973  0.8906 -0.5728
  695DECAN   C9 6939   7.922   3.250   6.939  0.0181  0.2213 -0.2386
  695DECAN  C10 6940   8.022   3.261   7.056 -0.2061 -0.3671  0.0106
  696DECAN   C1 6941   9.104   4.630   8.377 -0.3990  0.6817  0.3248
  696DECAN   C2 6942   9.113   4.660   8.528  0.0300 -0.2378  0.4905
  696DECAN   C3 6943   9.107   4.538   8.622  0.4244 -0.5875  0.0726
  696DECAN   C4 6944   9.119   4.572   8.772 -0.2887  0.3265 -0.0649
  696DECAN   C5 6945   9.259   4.557   8.835 -0.3136  0.2936 -0.0153
  696DECAN   C6 6946   9.270   4.610   8.979 -0.4142 -0.0254  0.1103
  696DECAN   C7 6947   9.229   4.757   8.998 -0.2670  0.0315 -0.0060
  696DECAN   C8 6948   9.077   4.786   8.995 -0.2601 -0.0018 -0.8875
  696DECAN   C9 6949   9.048   4.937   8.985 -0.1578  0.0759 -0.1191
  696DECAN  C10 6950   9.085   4.999   9.121 -0.1635 -0.7646  0.2756
  697DECAN   C1 6951   2.108   5.863   9.094 -0.2760 -0.1784 -0.3791
  697DECAN   C2 6952   2.196   5.788   8.992 -0.2657 -0.0837 -0.4397
  697DECAN   C3 6953   2.149   5.811   8.847 -0.4001  0.0559 -0.3738
  697DECAN   C4 6954   2.228   5.746   8.732  0.0659  0.3919 -0.2503
  697DECAN   C5 6955   2.170   5.794   8.597  0.1667  0.6610 -0.1975
  697DECAN   C6 6956   2.226   5.737   8.465  0.0427 -0.1908  0.1114
  697DECAN   C7 6957   2.164   5.798   8.338  0.3657  0.1499  0.1149
  697DECAN   C8 6958   2.010   5.804   8.337  0.3408 -0.3841  0.3170
  697DECAN   C9 6959   1.943   5.880   8.221  0.2204 -0.3165  0.4326
  697DECAN  C10 6960   1.792   5.848   8.223  0.0832  0.2915  0.2448
  698DECAN   C1 6961   6.992   0.105   5.551 -0.0662  0.1193 -0.2030
  698DECAN   C2 6962   6.915   0.150   5.426 -0.3482 -0.4457 -0.2370
  698DECAN   C3 6963   6.974   0.079   5.303  0.0445 -0.4470 -0.0481
  698DECAN   C4 6964   6.898   0.106   5.172  0.0869 -0.5464 -0.0929
  698DECAN   C5 6965   6.964   0.038   5.051  0.1449 -0.0140 -0.3615
  698DECAN   C6 6966   6.889   0.066   4.920 -0.4115  0.2253  0.0069
  698DECAN   C7 6967   6.884   0.215   4.883 -0.4204  0.2316  0.0333
  698DECAN   C8 6968   6.830   0.233   4.740  0.3166 -0.1298 -0.2939
  698DECAN   C9 6969   6.783   0.378   4.721  0.0470 -0.1654  0.1089
  698DECAN  C10 6970   6.741   0.429   4.582  0.0491  0.0965  0.2047
  699DECAN   C1 6971   4.065   5.672  11.482  0.1524 -0.7649  0.2862
  699DECAN   C2 6972   3.953   5.705  11.381  0.2178 -0.3102  0.3600
  699DECAN   C3 6973   3.925   5.855  11.358 -0.7558 -0.4954  0.3210
  699DECAN   C4 6974   3.804   5.879  11.267 -0.3004  0.0342 -0.1490
  699DECAN   C5 6975   3.790   6.027  11.224 -0.4011  0.2233  0.5247
  699DECAN   C6 6976   3.675   6.067  11.131  0.3689  0.4965 -0.3274
  699DECAN   C7 6977   3.535   6.063  11.195  0.6438  0.0626  0.2523
  699DECAN   C8 6978   3.491   5.922  11.237  0.0523  0.1694  0.0086
  699DECAN   C9 6979   3.344   5.913  11.284 -0.0679  0.7153 -0.2593
  699DECAN  C10 6980   3.282   5.774  11.263  0.2213  0.5179  0.1549
  700DECAN   C1 6981   8.089   2.183   7.152 -0.0466  0.2406  0.4060
  700DECAN   C2 6982   8.107   2.334   7.130  0.2509  0.1024 -0.3272
  700DECAN   C3 6983   8.259   2.360   7.126  0.1944  0.5165  0.0672
  700DECAN   C4 6984   8.348   2.306   7.013 -0.3218 -0.0868 -0.0578
  700DECAN   C5 6985   8.365   2.153   7.021 -0.0638 -0.0854 -0.5513
  700DECAN   C6 6986   8.465   2.088   6.924  0.1514  0.2839 -0.5789
  700DECAN   C7 6987   8.416   1.954   6.865 -0.2889  0.1256  0.1375
  700DECAN   C8 6988   8.289   1.954   6.779 -0.1699 -0.3837 -0.0414
  700DECAN   C9 6989   8.164   1.965   6.869  0.1108  0.0393  0.2990
  700DECAN  C10 6990   8.032   1.979   6.791  0.0715 -0.2662  0.3098
  701DECAN   C1 6991   1.527   0.002   7.360 -0.7053  0.7848  0.6003
  701DECAN   C2 6992   1.656   0.015   7.443  0.2746  0.1627 -0.7798
  701DECAN   C3 6993   1.673   0.156   7.501 -0.0002 -0.1789  0.1638
  701DECAN   C4 6994   1.784   0.160   7.608 -0.0860 -0.1142  0.2510
  701DECAN   C5 6995   1.808   0.303   7.661  0.6399  0.0839 -0.5815
  701DECAN   C6 6996   1.915   0.320   7.770 -0.0064 -0.2903  0.1219
  701DECAN   C7 6997   2.056   0.281   7.721 -0.2966  0.0662 -1.0280
  701DECAN   C8 6998   2.060   0.138   7.666 -0.5522 -0.3144 -0.0738
  701DECAN   C9 6999   2.189   0.097   7.592 -0.3331 -0.7976  0.5566
  701DECAN  C10 7000   2.176  11.196   7.543 -0.1500 -0.5535 -0.2274
  702DECAN   C1 7001   0.712   9.495  10.398  0.3770 -1.0466 -0.2662
  702DECAN   C2 7002   0.844   9.550  10.456 -0.6183  0.3570  0.7381
  702DECAN   C3 7003   0.886   9.680  10.386 -0.2975  0.2329  0.6956
  702DECAN   C4 7004   1.034   9.713  10.408 -0.0064 -0.3459 -0.3462
  702DECAN   C5 7005   1.091   9.825  10.319  0.1393 -0.2587 -0.1429
  702DECAN   C6 7006   1.238   9.866  10.339  0.1746 -0.4507 -0.0069
  702DECAN   C7 7007   1.302   9.977  10.253 -0.8450  0.0978 -0.0817
  702DECAN   C8 7008   1.429  10.031  10.323 -0.3097 -0.4758 -0.6008
  702DECAN   C9 7009   1.503  10.147  10.255  0.0295  0.0118  0.5914
  702DECAN  C10 7010   1.635  10.182  10.326  0.3396  0.6426 -0.2787
  703DECAN   C1 7011   4.550   3.181   6.878 -0.0457 -0.2930  0.1594
  703DECAN   C2 7012   4.549   3.152   7.030  0.1364  0.3430  0.2847
  703DECAN   C3 7013   4.582   3.008   7.073  0.4099  0.1630 -0.5065
  703DECAN   C4 7014   4.585   2.998   7.227 -0.5727  0.0739 -0.4870
  703DECAN   C5 7015   4.581   2.870   7.311  0.5436  0.3777  0.0431
  703DECAN   C6 7016   4.608   2.886   7.462  0.0862 -0.7653  0.2562
  703DECAN   C7 7017   4.510   2.973   7.543  0.4097 -0.1020 -0.0553
  703DECAN   C8 7018   4.526   3.121   7.506 -0.0817 -0.1193 -0.3478
  703DECAN   C9 7019   4.412   3.204   7.567 -0.0059 -0.2488 -0.0301
  703DECAN  C10 7020   4.449   3.353   7.578 -0.4690 -0.1827  0.7242
  704DECAN   C1 7021   7.012   0.772   9.889  0.0826 -0.4660 -0.3644
  704DECAN   C2 7022   6.911   0.662   9.848 -0.1870 -0.2691 -0.2314
  704DECAN   C3 7023   6.974   0.522   9.858  0.2480 -0.0652 -0.0637
  704DECAN   C4 7024   7.105   0.510   9.778  0.0968  0.3344 -0.3765
  704DECAN   C5 7025   7.156   0.368   9.749 -0.1282  0.2339 -0.2835
  704DECAN   C6 7026   7.285   0.353   9.667  0.0964  0.4051  0.0351
  704DECAN   C7 7027   7.382   0.251   9.732  0.0808  0.4308  0.0994
  704DECAN   C8 7028   7.514   0.235   9.654 -0.0187  0.6583 -0.1192
  704DECAN   C9 7029   7.619   0.156   9.735 -0.3350 -0.2619 -0.5928
  704DECAN  C10 7030   7.757   0.119   9.678 -0.0377 -0.5311  0.2810
  705DECAN   C1 7031   5.825   8.177   6.903 -0.1389 -0.0089  0.1873
  705DECAN   C2 7032   5.957   8.202   6.978 -0.0198  0.5970 -0.2107
  705DECAN   C3 7033   5.966   8.310   7.087 -0.2848  0.5326 -0.1235
  705DECAN   C4 7034   5.877   8.278   7.208 -0.1288 -0.8108 -0.3488
  705DECAN   C5 7035   5.898   8.387   7.315 -0.2265 -0.6794 -0.4633
  705DECAN   C6 7036   5.814   8.380   7.444  0.2226  0.1444 -0.1186
  705DECAN   C7 7037   5.825   8.500   7.541 -0.0270  0.0384  0.0417
  705DECAN   C8 7038   5.759   8.470   7.677 -0.2494  0.3590  0.0035
  705DECAN   C9 7039   5.606   8.481   7.678 -0.2971 -0.3192  0.0188
  705DECAN  C10 7040   5.547   8.359   7.604 -0.0536 -0.2198 -0.3427
  706DECAN   C1 7041   1.320   3.292   7.541  0.1756 -0.1427 -0.0789
  706DECAN   C2 7042   1.390   3.412   7.475  0.1010  0.1834  0.4261
  706DECAN   C3 7043   1.350   3.554   7.518 -0.1720  0.1643  0.2421
  706DECAN   C4 7044   1.423   3.656   7.429  0.5023 -0.2144  0.3546
  706DECAN   C5 7045   1.430   3.798   7.490  0.4541 -0.0319 -0.0624
  706DECAN   C6 7046   1.505   3.904   7.407 -0.3566  0.6378  0.0598
  706DECAN   C7 7047   1.531   4.036   7.482  0.2141  0.3317  0.4041
  706DECAN   C8 7048   1.607   4.133   7.388 -0.1062 -0.3354 -0.5566
  706DECAN   C9 7049   1.752   4.099   7.351  0.2591  0.5521  0.0383
  706DECAN  C10 7050   1.802   4.163   7.220 -0.1605  0.4547 -0.1717
  707DECAN   C1 7051  10.681   1.613  11.573 -0.3855 -0.4404  1.1624
  707DECAN   C2 7052  10.643   1.495  11.481 -0.2189  0.3784  0.0199
  707DECAN   C3 7053  10.588   1.370  11.552 -0.0024  0.3807  0.1950
  707DECAN   C4 7054  10.451   1.398  11.618 -0.0700  0.3240  0.0796
  707DECAN   C5 7055  10.376   1.276  11.676  0.0278  0.2184 -0.0159
  707DECAN   C6 7056  10.285   1.209  11.571  0.0988 -0.0583  0.0991
  707DECAN   C7 7057  10.230   1.076  11.625 -0.3100  0.0310 -0.0969
  707DECAN   C8 7058  10.178   0.983  11.513 -0.0471 -0.0512 -0.1492
  707DECAN   C9 7059  10.107   0.860  11.574  0.8226 -0.4569  0.0622
  707DECAN  C10 7060  10.046   0.763  11.472  0.3176 -0.1170  0.0410
  708DECAN   C1 7061   1.484   4.330  11.836 -0.2590 -0.1961 -0.3881
  708DECAN   C2 7062   1.632   4.340  11.877 -0.2973 -0.4884 -0.1799
  708DECAN   C3 7063   1.656   4.449  11.983  0.4510 -0.9988  0.1858
  708DECAN   C4 7064   1.798   4.510  11.975  0.0662 -0.1676 -0.3870
  708DECAN   C5 7065   1.918   4.432  12.030  0.2374  0.1660 -0.2891
  708DECAN   C6 7066   2.050   4.508  12.002  0.1533  0.0224 -1.1059
  708DECAN   C7 7067   2.166   4.409  12.029  0.0782  0.2710  0.1920
  708DECAN   C8 7068   2.308   4.468  12.022  0.1651  0.0204 -0.1442
  708DECAN   C9 7069   2.361   4.511  11.883  0.2713 -0.3199 -0.2114
  708DECAN  C10 7070   2.276   4.626  11.824  0.6496 -0.1394 -0.4044
  709DECAN   C1 7071   8.985   2.889   4.890 -0.4838 -0.6290  0.3804
  709DECAN   C2 7072   9.081   2.826   4.788 -0.1268  0.1099  0.2521
  709DECAN   C3 7073   9.065   2.875   4.643 -0.4163 -1.0139 -0.1074
  709DECAN   C4 7074   9.142   2.793   4.537  0.6228  0.2774 -0.3763
  709DECAN   C5 7075   9.289   2.770   4.577  0.4560  0.7000  0.4951
  709DECAN   C6 7076   9.375   2.698   4.472 -0.2186 -0.0416  0.4414
  709DECAN   C7 7077   9.529   2.702   4.480 -0.1806  0.0848 -0.2728
  709DECAN   C8 7078   9.603   2.631   4.366  0.3256  0.2193 -0.0289
  709DECAN   C9 7079   9.602   2.478   4.372  0.2474  0.2037 -0.4104
  709DECAN  C10 7080   9.690   2.419   4.483  0.1592  0.0848 -0.4029
  710DECAN   C1 7081   4.589   5.668  12.026  0.3889 -0.3979 -0.4300
  710DECAN   C2 7082   4.516   5.581  12.130 -0.1282  0.2661 -0.2311
  710DECAN   C3 7083   4.383   5.521  12.081 -0.0496  0.1955 -0.3588
  710DECAN   C4 7084   4.353   5.409  12.184  0.0091  0.0611 -0.4888
  710DECAN   C5 7085   4.229   5.329  12.142 -0.1242  0.1844 -0.3308
  710DECAN   C6 7086   4.185   5.218  12.238 -0.3213  0.4328 -0.1331
  710DECAN   C7 7087   4.046   5.153  12.228  0.0740 -0.4704  0.0956
  710DECAN   C8 7088   4.013   5.066  12.350 -0.2669 -0.2814  0.1378
  710DECAN   C9 7089   4.110   4.955  12.392 -0.1409 -0.2455 -0.0583
  710DECAN  C10 7090   4.052   4.866  12.504 -0.3270 -0.0790 -0.0231
  711DECAN   C1 7091   8.918   2.520  11.806 -0.0968 -0.5903 -0.0030
  711DECAN   C2 7092   8.895   2.388  11.730 -0.3374 -0.5595  0.0176
  711DECAN   C3 7093   8.864   2.266  11.819  0.8121 -0.7834  0.1212
  711DECAN   C4 7094   8.831   2.140  11.737 -0.1870 -0.3583 -0.1442
  711DECAN   C5 7095   8.819   2.007  11.813 -0.3928 -0.0228  0.4163
  711DECAN   C6 7096   8.938   1.978  11.905 -0.2454  0.4687  0.3828
  711DECAN   C7 7097   8.916   1.846  11.982  0.5502 -0.0490 -0.2600
  711DECAN   C8 7098   9.013   1.810  12.097  0.1204  0.1809  0.1770
  711DECAN   C9 7099   9.010   1.658  12.121  0.1637  0.1375 -0.0861
  711DECAN  C10 7100   9.114   1.625  12.230  0.0239 -0.3490 -0.0969
  712DECAN   C1 7101   7.199   0.818   4.505  0.5798 -0.6162 -0.0710
  712DECAN   C2 7102   7.183   0.672   4.460  0.0138 -0.4949 -0.2750
  712DECAN   C3 7103   7.287   0.580   4.527  0.2313  0.0701  0.1707
  712DECAN   C4 7104   7.277   0.439   4.466 -0.2272  0.2202 -0.1102
  712DECAN   C5 7105   7.132   0.387   4.464 -0.0254 -0.3553  0.0914
  712DECAN   C6 7106   7.128   0.236   4.434  0.1336 -0.4687  0.6350
  712DECAN   C7 7107   6.986   0.193   4.394  0.1275  0.1565 -0.0292
  712DECAN   C8 7108   6.982   0.048   4.342 -0.0684  0.0058  0.3954
  712DECAN   C9 7109   6.858   0.002   4.263  0.7938  0.0262 -1.0115
  712DECAN  C10 7110   6.869  11.095   4.236 -0.0652 -0.2238 -0.0138
  713DECAN   C1 7111   6.196  11.108  11.585  0.0508  0.3474  0.1201
  713DECAN   C2 7112   6.248  11.027  11.465 -0.4236 -0.0230  0.1638
  713DECAN   C3 7113   6.174  11.059  11.334 -0.2783  0.4461  0.1952
  713DECAN   C4 7114   6.029  11.008  11.332 -0.2320  0.3216 -0.2122
  713DECAN   C5 7115   5.950  11.068  11.450  0.2825 -0.3421  0.4803
  713DECAN   C6 7116   5.803  11.023  11.469 -0.1992  0.6748 -0.6618
  713DECAN   C7 7117   5.719  11.127  11.546 -0.3620  0.0337  0.0445
  713DECAN   C8 7118   5.571  11.086  11.542 -0.2609 -0.2942 -0.4399
  713DECAN   C9 7119   5.536  10.944  11.592 -0.4233 -0.3314 -0.6570
  713DECAN  C10 7120   5.566  10.917  11.740 -0.5713 -0.3728 -0.6345
  714DECAN   C1 7121   5.967   0.497   4.170 -0.2826 -0.1314  0.4196
  714DECAN   C2 7122   5.887   0.469   4.041  0.0015  0.4641  0.1090
  714DECAN   C3 7123   5.740   0.433   4.067  0.1362 -0.6243 -0.5796
  714DECAN   C4 7124   5.706   0.364   4.200  0.3623 -0.1417 -0.2665
  714DECAN   C5 7125   5.558   0.324   4.222  0.3736 -0.4563 -0.7450
  714DECAN   C6 7126   5.452   0.436   4.222  0.8033 -0.0437 -0.9220
  714DECAN   C7 7127   5.306   0.400   4.255  0.9563 -0.3329 -0.5396
  714DECAN   C8 7128   5.228   0.324   4.145 -0.1857 -0.5591  0.4061
  714DECAN   C9 7129   5.074   0.327   4.148 -0.1858 -0.1786  0.1112
  714DECAN  C10 7130   4.998   0.263   4.030  0.2976 -0.4555 -0.0554
  715DECAN   C1 7131   9.168   1.524   8.713 -0.0023  0.3203  0.1254
  715DECAN   C2 7132   9.185   1.475   8.568 -0.1803  0.2682  0.1216
  715DECAN   C3 7133   9.101   1.535   8.453 -0.0678  0.5882  0.2053
  715DECAN   C4 7134   9.153   1.498   8.313  0.3600  0.7255  0.3250
  715DECAN   C5 7135   9.081   1.561   8.192 -0.0994  0.0190  0.2203
  715DECAN   C6 7136   9.148   1.508   8.064  0.1589 -0.0819  0.3945
  715DECAN   C7 7137   9.128   1.573   7.926  0.9433  0.7653  0.6750
  715DECAN   C8 7138   9.194   1.499   7.808 -0.0136  0.1935  0.4890
  715DECAN   C9 7139   9.196   1.575   7.675 -0.1322 -0.2497  0.2329
  715DECAN  C10 7140   9.206   1.472   7.561 -0.1405  0.0737 -0.0644
  716DECAN   C1 7141  10.628   0.357  10.855  0.0120  0.5294 -0.6533
  716DECAN   C2 7142  10.598   0.465  10.961  0.1813  0.1340 -0.1990
  716DECAN   C3 7143  10.479   0.550  10.913  0.4144  0.4587 -0.2058
  716DECAN   C4 7144  10.369   0.577  11.017  0.0943  0.2843 -0.4939
  716DECAN   C5 7145  10.267   0.687  10.983  0.1149  0.3110 -0.4682
  716DECAN   C6 7146  10.147   0.678  11.080  0.6235 -0.1317  0.1266
  716DECAN   C7 7147  10.066   0.551  11.051  0.2852  0.0274  0.3744
  716DECAN   C8 7148   9.937   0.530  11.133  0.0988  0.0611  0.0907
  716DECAN   C9 7149   9.868   0.402  11.084  0.3746 -0.0861  0.0836
  716DECAN  C10 7150   9.755   0.345  11.173  0.3149 -0.0711  0.0167
  717DECAN   C1 7151   6.106   6.952  14.296 -0.8775  0.3272 -0.4611
  717DECAN   C2 7152   6.168   6.974  14.156  0.0131 -0.2892 -0.1642
  717DECAN   C3 7153   6.175   7.119  14.107 -0.1251 -0.1911  0.1048
  717DECAN   C4 7154   6.268   7.137  13.985 -0.1914 -0.3964  0.0251
  717DECAN   C5 7155   6.271   7.279  13.926  0.5054 -0.4365 -0.0377
  717DECAN   C6 7156   6.347   7.317  13.798  0.1852  0.2271 -0.0343
  717DECAN   C7 7157   6.317   7.465  13.769  0.0233  0.1823 -0.0998
  717DECAN   C8 7158   6.372   7.527  13.639 -0.1461 -0.1917 -0.3490
  717DECAN   C9 7159   6.334   7.675  13.627  0.5982 -0.0073 -0.4687
  717DECAN  C10 7160   6.395   7.760  13.514  0.1672 -0.1235 -0.7870
  718DECAN   C1 7161   7.806   9.473  11.402 -0.0478 -0.1906 -0.1189
  718DECAN   C2 7162   7.658   9.515  11.400 -0.0519 -0.0956  1.0517
  718DECAN   C3 7163   7.581   9.415  11.311  0.1010  0.3612  0.3916
  718DECAN   C4 7164   7.428   9.429  11.300  0.0670  0.0160  0.3899
  718DECAN   C5 7165   7.353   9.302  11.256 -0.5819  0.5886 -0.1956
  718DECAN   C6 7166   7.280   9.229  11.370 -0.3461  0.1753 -0.3038
  718DECAN   C7 7167   7.380   9.201  11.484 -0.3587  0.1729 -0.2945
  718DECAN   C8 7168   7.336   9.157  11.625  0.0426 -0.0781 -0.2431
  718DECAN   C9 7169   7.464   9.131  11.706 -0.3267 -0.2077  0.3065
  718DECAN  C10 7170   7.556   9.018  11.655 -0.0419  0.0944  0.1473
  719DECAN   C1 7171   6.354   6.803   9.366  0.6983  0.4179  0.3298
  719DECAN   C2 7172   6.434   6.713   9.462  0.1560  0.0315  0.4238
  719DECAN   C3 7173   6.529   6.622   9.382 -0.1913 -0.0287  0.0767
  719DECAN   C4 7174   6.615   6.518   9.456 -0.2228 -0.1510 -0.0571
  719DECAN   C5 7175   6.727   6.452   9.373  0.1134  0.2325  0.0877
  719DECAN   C6 7176   6.790   6.335   9.451  0.1525  0.1030 -0.1381
  719DECAN   C7 7177   6.686   6.232   9.498  0.2157  0.0550 -0.1042
  719DECAN   C8 7178   6.734   6.123   9.596  0.1284  0.0871 -0.0238
  719DECAN   C9 7179   6.645   5.998   9.602  0.3921 -0.0930  0.1481
  719DECAN  C10 7180   6.663   5.899   9.719  0.3560  0.2618  0.4561
  720DECAN   C1 7181   1.750   6.275  12.771  0.2351 -0.0839 -0.5365
  720DECAN   C2 7182   1.742   6.428  12.757  0.3451 -0.0427 -0.1484
  720DECAN   C3 7183   1.606   6.498  12.734  0.2347 -0.1598  0.1382
  720DECAN   C4 7184   1.599   6.647  12.698 -0.0284 -0.2394 -0.1421
  720DECAN   C5 7185   1.451   6.680  12.669 -0.1607 -0.1544  0.6170
  720DECAN   C6 7186   1.424   6.828  12.637  0.7259 -0.0729  0.2119
  720DECAN   C7 7187   1.283   6.832  12.576  0.6411  0.2640  0.4234
  720DECAN   C8 7188   1.218   6.972  12.567 -0.1916 -0.1308  0.1783
  720DECAN   C9 7189   1.259   7.049  12.694 -0.1843 -0.4192  0.3522
  720DECAN  C10 7190   1.194   6.993  12.822  0.0823 -0.2141  0.5772
  721DECAN   C1 7191   6.264   7.494  13.071  0.1081 -0.2610 -0.0089
  721DECAN   C2 7192   6.260   7.593  13.189 -0.2132  0.0422 -0.2704
  721DECAN   C3 7193   6.217   7.734  13.146  0.0915  0.2302  0.0314
  721DECAN   C4 7194   6.314   7.795  13.043  0.4665 -0.1211  0.1751
  721DECAN   C5 7195   6.297   7.945  13.010  0.3670 -0.0487  0.5480
  721DECAN   C6 7196   6.413   8.021  12.943  0.3344 -0.1343  0.3921
  721DECAN   C7 7197   6.363   8.150  12.874  0.3377 -0.2685  0.1390
  721DECAN   C8 7198   6.486   8.239  12.849  0.3023 -0.2482  0.0371
  721DECAN   C9 7199   6.457   8.383  12.800  0.5115 -0.0892  0.3795
  721DECAN  C10 7200   6.590   8.452  12.764  0.6953 -0.4649  0.3271
  722DECAN   C1 7201   5.027   7.555   8.379  0.4030  0.2102  0.2582
  722DECAN   C2 7202   4.884   7.560   8.437  0.4072  0.4829  0.2482
  722DECAN   C3 7203   4.881   7.562   8.591 -0.4542  0.5216  0.2360
  722DECAN   C4 7204   4.752   7.617   8.654 -0.4258  0.2569  0.5293
  722DECAN   C5 7205   4.758   7.628   8.807 -0.6790 -0.0840  0.5624
  722DECAN   C6 7206   4.856   7.731   8.865 -0.6392  0.1133  0.1423
  722DECAN   C7 7207   4.872   7.692   9.013 -0.2111  0.3474  0.1592
  722DECAN   C8 7208   4.974   7.767   9.101  0.4997 -0.1348 -0.2492
  722DECAN   C9 7209   5.010   7.692   9.230  0.2834  0.3475  0.0936
  722DECAN  C10 7210   4.898   7.693   9.336  0.0265  0.6760 -0.1805
  723DECAN   C1 7211   9.932   8.817   9.410 -0.5589 -0.1594  0.2686
  723DECAN   C2 7212   9.869   8.947   9.465 -0.2543 -0.1229  0.5321
  723DECAN   C3 7213   9.878   8.973   9.617  0.4564  0.0080  0.4736
  723DECAN   C4 7214   9.824   9.108   9.667 -0.3877 -0.2693  0.3415
  723DECAN   C5 7215   9.907   9.235   9.641  0.0749 -0.6538 -0.0859
  723DECAN   C6 7216  10.056   9.225   9.680  0.2132  0.2556 -0.3610
  723DECAN   C7 7217  10.131   9.359   9.691  0.5343  0.0685 -0.2466
  723DECAN   C8 7218  10.260   9.341   9.772  0.2654  0.4192  0.2609
  723DECAN   C9 7219  10.328   9.478   9.797  0.3439  0.3586  0.3834
  723DECAN  C10 7220  10.458   9.490   9.878  0.2064  0.3231  0.6112
  724DECAN   C1 7221   3.828   2.377  14.162  0.3008 -0.2684  0.2950
  724DECAN   C2 7222   3.833   2.223  14.163  0.1739 -0.2736  0.1875
  724DECAN   C3 7223   3.960   2.171  14.092  0.1657 -0.2819  0.1795
  724DECAN   C4 7224   3.980   2.018  14.102 -0.0375 -0.3160  0.0729
  724DECAN   C5 7225   4.127   1.989  14.067  0.0115  0.2815 -0.2363
  724DECAN   C6 7226   4.172   2.004  13.921  0.9310 -0.3960 -0.0336
  724DECAN   C7 7227   4.189   2.151  13.876 -0.1392 -0.1204  0.4298
  724DECAN   C8 7228   4.228   2.149  13.727  0.7254  0.0773  0.6494
  724DECAN   C9 7229   4.284   2.284  13.677  0.0902 -0.0146 -0.3439
  724DECAN  C10 7230   4.352   2.287  13.539  0.1893  0.1919 -0.2899
  725DECAN   C1 7231   9.951   0.450   5.077 -0.4782  0.0537  0.2973
  725DECAN   C2 7232   9.983   0.363   5.200  0.1676  0.0580  0.1356
  725DECAN   C3 7233   9.966   0.439   5.333 -0.1907  0.4392 -0.1255
  725DECAN   C4 7234  10.004   0.363   5.462  0.5737  0.0139 -0.5939
  725DECAN   C5 7235   9.950   0.428   5.590 -0.4184 -0.5140 -0.7318
  725DECAN   C6 7236   9.800   0.404   5.612 -0.3385  0.0104  0.4676
  725DECAN   C7 7237   9.759   0.467   5.747 -0.7040  0.0199  0.3530
  725DECAN   C8 7238   9.613   0.445   5.791 -0.6733 -0.6591  0.1396
  725DECAN   C9 7239   9.585   0.512   5.927  0.0696 -0.2974  0.1222
  725DECAN  C10 7240   9.443   0.514   5.987  0.2836  0.0150  0.6320
  726DECAN   C1 7241   2.444   4.548   8.700  0.2224 -0.1446  0.6029
  726DECAN   C2 7242   2.433   4.701   8.684  0.7770 -0.1858 -0.2470
  726DECAN   C3 7243   2.431   4.764   8.544  0.0896 -0.3869 -0.3305
  726DECAN   C4 7244   2.294   4.769   8.474  0.0654 -0.0216 -0.2600
  726DECAN   C5 7245   2.293   4.790   8.321  0.1041 -0.2553 -0.2946
  726DECAN   C6 7246   2.149   4.768   8.271 -0.0919  0.1940  0.0622
  726DECAN   C7 7247   2.127   4.829   8.132 -0.2701  0.5098  0.2270
  726DECAN   C8 7248   1.982   4.809   8.083 -0.0822 -0.5710  0.0816
  726DECAN   C9 7249   1.878   4.886   8.167 -0.1429  0.2954 -0.7714
  726DECAN  C10 7250   1.832   4.794   8.281 -0.0261  0.8501 -0.2705
  727DECAN   C1 7251   6.569  10.160  12.849  0.0774 -0.2559  0.3983
  727DECAN   C2 7252   6.687  10.063  12.868  0.0487 -0.5794 -0.9791
  727DECAN   C3 7253   6.691  10.029  13.018  0.1179  0.5970 -0.7115
  727DECAN   C4 7254   6.566   9.944  13.048  1.0035 -0.4540  0.0883
  727DECAN   C5 7255   6.551   9.910  13.198  0.5945  0.0996  0.1755
  727DECAN   C6 7256   6.519   9.762  13.227  0.0971  0.1894  0.0995
  727DECAN   C7 7257   6.514   9.726  13.377  0.2454 -0.2288  0.0029
  727DECAN   C8 7258   6.467   9.582  13.404  0.0120 -0.1204  0.1845
  727DECAN   C9 7259   6.332   9.560  13.334  0.0346  0.2444  0.0254
  727DECAN  C10 7260   6.350   9.588  13.184 -0.5272  0.1370 -0.0651
  728DECAN   C1 7261   7.700  11.047   7.821  0.4950  0.1885  0.0312
  728DECAN   C2 7262   7.711  11.183   7.891  0.4245 -0.0029  0.4137
  728DECAN   C3 7263   7.586   0.016   7.936  0.2784 -0.1159  0.1992
  728DECAN   C4 7264   7.617   0.127   8.037 -0.7644 -0.1392  0.5632
  728DECAN   C5 7265   7.732   0.097   8.135  0.1789  0.5773 -0.2956
  728DECAN   C6 7266   7.868   0.063   8.072  0.0703 -0.4854  0.0107
  728DECAN   C7 7267   7.976   0.052   8.181 -0.1087 -0.3021  0.2064
  728DECAN   C8 7268   8.004   0.188   8.249 -0.1050 -0.1272 -0.1457
  728DECAN   C9 7269   7.952   0.186   8.394  0.2205 -0.4717 -0.0320
  728DECAN  C10 7270   8.054   0.104   8.476  0.3369 -0.5598 -0.2634
  729DECAN   C1 7271   2.191   4.361   6.263 -0.7499  0.0420  0.6917
  729DECAN   C2 7272   2.137   4.505   6.249 -0.6049  0.0433  0.1370
  729DECAN   C3 7273   2.202   4.598   6.353  0.2854 -0.6509  0.2111
  729DECAN   C4 7274   2.130   4.734   6.360  0.7658 -0.4069  0.4028
  729DECAN   C5 7275   2.173   4.812   6.486 -0.2685  0.2812  0.3389
  729DECAN   C6 7276   2.080   4.930   6.519 -0.4349  0.4011 -0.5427
  729DECAN   C7 7277   1.931   4.910   6.551 -0.2544 -0.0105  0.0501
  729DECAN   C8 7278   1.909   4.828   6.680 -0.4683 -0.3285 -0.1854
  729DECAN   C9 7279   1.932   4.676   6.670  0.4173 -0.2099 -0.1059
  729DECAN  C10 7280   1.945   4.613   6.810  0.5598 -0.2192 -0.1240
  730DECAN   C1 7281   9.561   6.341   4.463 -0.1961 -0.1438 -0.9103
  730DECAN   C2 7282   9.537   6.189   4.460 -0.5907 -0.0941 -0.3071
  730DECAN   C3 7283   9.392   6.146   4.431 -0.3118 -0.5931 -1.0013
  730DECAN   C4 7284   9.351   6.000   4.462 -0.0123 -0.5179 -0.2335
  730DECAN   C5 7285   9.204   5.969   4.431 -0.2955  0.0779  0.4744
  730DECAN   C6 7286   9.188   5.816   4.422  0.5662  0.0063  0.0776
  730DECAN   C7 7287   9.045   5.768   4.389  0.4573  0.8342 -0.6710
  730DECAN   C8 7288   8.934   5.821   4.481  0.3208 -0.2494 -0.2087
  730DECAN   C9 7289   8.792   5.776   4.441  0.1986 -0.1674  0.1272
  730DECAN  C10 7290   8.752   5.629   4.425 -0.1483  0.0149 -0.7088
  731DECAN   C1 7291   7.085   6.364  11.367 -0.6506  0.0386 -0.6238
  731DECAN   C2 7292   6.955   6.432  11.414 -0.1876  0.3158  0.2718
  731DECAN   C3 7293   6.907   6.363  11.542 -0.0628 -0.3956 -0.0612
  731DECAN   C4 7294   6.780   6.427  11.600  0.0678 -0.4012  0.2328
  731DECAN   C5 7295   6.662   6.423  11.501  0.2350  0.3411 -0.0088
  731DECAN   C6 7296   6.562   6.539  11.496  0.1882  0.2934 -0.1956
  731DECAN   C7 7297   6.429   6.504  11.427 -0.0646  0.7209  0.0706
  731DECAN   C8 7298   6.327   6.606  11.482 -0.4714  0.2127  0.2654
  731DECAN   C9 7299   6.262   6.569  11.617  0.2420 -0.1558  0.5108
  731DECAN  C10 7300   6.223   6.420  11.626  0.0696 -0.1503 -0.0914
  732DECAN   C1 7301   2.619  10.699   3.935 -0.1406 -0.1853  0.2727
  732DECAN   C2 7302   2.697  10.830   3.956  0.3290 -0.3588 -0.3493
  732DECAN   C3 7303   2.707  10.889   4.098  0.4546 -0.2594 -0.3990
  732DECAN   C4 7304   2.775  11.026   4.079  0.7589 -0.3440  0.0550
  732DECAN   C5 7305   2.804  11.082   4.219 -0.2474  0.1274  0.0867
  732DECAN   C6 7306   2.877  11.218   4.220  0.1498 -0.0764 -0.7001
  732DECAN   C7 7307   3.014  11.202   4.151  0.0680  0.2494 -0.9364
  732DECAN   C8 7308   3.021  11.147   4.007  0.1701 -0.3005 -0.7205
  732DECAN   C9 7309   3.127  11.221   3.924  0.0516  0.5434 -0.1335
  732DECAN  C10 7310   3.155  11.134   3.800  0.3223 -0.0842  0.3549
  733DECAN   C1 7311   9.969   3.742  10.544  0.6258  0.0067  0.3173
  733DECAN   C2 7312  10.033   3.876  10.504 -0.1476  0.1718 -0.4035
  733DECAN   C3 7313  10.186   3.876  10.525 -0.1942  0.4742 -0.0589
  733DECAN   C4 7314  10.243   4.018  10.547 -0.5762  0.5906  0.2003
  733DECAN   C5 7315  10.379   4.007  10.619 -0.5479  0.4601  0.1272
  733DECAN   C6 7316  10.453   4.141  10.636  0.4172  0.0749 -0.8379
  733DECAN   C7 7317  10.606   4.135  10.653  0.3453  0.0319 -0.1641
  733DECAN   C8 7318  10.654   4.274  10.697 -0.3174  0.1794  0.1124
  733DECAN   C9 7319  10.605   4.297  10.841 -0.0345  0.1116  0.2193
  733DECAN  C10 7320  10.647   4.433  10.898  0.4162 -0.0209  0.2059
  734DECAN   C1 7321   2.472   9.424   6.446  0.6613  0.2934 -0.2294
  734DECAN   C2 7322   2.446   9.485   6.306 -0.4782  0.1985 -0.0680
  734DECAN   C3 7323   2.382   9.381   6.213 -0.3525 -0.1125  0.1896
  734DECAN   C4 7324   2.253   9.318   6.268 -0.6664 -0.0642 -0.4766
  734DECAN   C5 7325   2.222   9.183   6.200  0.3243 -0.5989  0.1082
  734DECAN   C6 7326   2.092   9.117   6.250  0.0240 -0.2058 -0.1450
  734DECAN   C7 7327   2.030   9.016   6.152 -0.2346  0.1847 -0.3879
  734DECAN   C8 7328   1.887   8.968   6.183  0.0466 -0.2527  0.2646
  734DECAN   C9 7329   1.839   8.867   6.078 -0.0057  0.0131  0.0305
  734DECAN  C10 7330   1.694   8.823   6.102  0.2865 -0.7863  0.3523
  735DECAN   C1 7331   5.155   9.511   9.884 -0.0197  0.4491  0.2157
  735DECAN   C2 7332   5.293   9.526   9.818 -0.1072  0.2285 -0.0183
  735DECAN   C3 7333   5.297   9.552   9.666 -0.5211 -0.4364 -0.1488
  735DECAN   C4 7334   5.213   9.673   9.621 -0.5922 -0.3154  0.3013
  735DECAN   C5 7335   5.231   9.698   9.470  0.2067 -0.3605  0.3814
  735DECAN   C6 7336   5.215   9.576   9.378 -0.4271  0.1523 -0.2028
  735DECAN   C7 7337   5.256   9.605   9.232 -0.3920 -0.0155 -0.2281
  735DECAN   C8 7338   5.404   9.641   9.205 -0.2272 -0.6618 -0.1879
  735DECAN   C9 7339   5.429   9.743   9.093 -0.4908 -0.5001 -0.1021
  735DECAN  C10 7340   5.313   9.842   9.068  0.3426  0.5248  0.0041
  736DECAN   C1 7341   5.339   5.256  12.412  0.3316  0.0945 -0.1931
  736DECAN   C2 7342   5.378   5.250  12.263  0.7699 -0.2164 -0.0685
  736DECAN   C3 7343   5.503   5.168  12.227  0.4017 -0.9034  0.2017
  736DECAN   C4 7344   5.557   5.195  12.085 -0.1946 -0.2404  0.0952
  736DECAN   C5 7345   5.698   5.145  12.048 -0.2228  0.1577 -0.5463
  736DECAN   C6 7346   5.742   5.171  11.902  0.2780 -0.0541 -0.4338
  736DECAN   C7 7347   5.878   5.115  11.857  0.2007 -0.4436 -0.1920
  736DECAN   C8 7348   5.893   5.084  11.707 -0.0387 -0.1461 -0.2781
  736DECAN   C9 7349   5.794   4.973  11.669  0.2546 -0.7701  0.7421
  736DECAN  C10 7350   5.807   4.914  11.527  0.1010  0.1683  0.3343
  737DECAN   C1 7351   7.097   4.162   5.335  0.2707  0.3020 -0.0533
  737DECAN   C2 7352   7.210   4.058   5.315  0.0040 -0.0500  0.2567
  737DECAN   C3 7353   7.281   4.005   5.441  0.0458  0.3684  0.4120
  737DECAN   C4 7354   7.388   3.895   5.430 -0.4516 -0.0726 -0.0794
  737DECAN   C5 7355   7.464   3.885   5.564  0.3819 -0.6570 -0.5835
  737DECAN   C6 7356   7.530   3.748   5.588  0.3491 -0.5638  0.0467
  737DECAN   C7 7357   7.571   3.719   5.733 -0.2784 -0.2361  0.2922
  737DECAN   C8 7358   7.674   3.606   5.748  0.0546  0.0562  0.2325
  737DECAN   C9 7359   7.627   3.468   5.698  0.2662  0.3641 -0.8306
  737DECAN  C10 7360   7.721   3.350   5.727  0.4241  0.6322 -0.2284
  738DECAN   C1 7361   3.644   4.548  13.960  0.1039 -0.2908 -0.6758
  738DECAN   C2 7362   3.693   4.635  13.843  0.3511  0.4118 -0.0649
  738DECAN   C3 7363   3.655   4.580  13.704 -0.1911  0.9836 -0.1475
  738DECAN   C4 7364   3.754   4.619  13.592  0.7698  0.1901  0.4030
  738DECAN   C5 7365   3.807   4.761  13.623  0.0286  0.4842  0.3477
  738DECAN   C6 7366   3.895   4.824  13.514  0.3758 -0.0936  0.2875
  738DECAN   C7 7367   3.973   4.953  13.547  0.3156  0.0329 -0.0684
  738DECAN   C8 7368   3.874   5.070  13.563  0.0127 -0.3642  1.0047
  738DECAN   C9 7369   3.947   5.198  13.608  0.0999 -0.1767  0.3334
  738DECAN  C10 7370   4.005   5.275  13.487  0.0149  0.1493  0.4995
  739DECAN   C1 7371   9.369   4.276   8.700  0.5605 -0.1529  0.3896
  739DECAN   C2 7372   9.245   4.193   8.664  0.5541 -0.1375  0.3772
  739DECAN   C3 7373   9.254   4.046   8.711  0.1433 -0.2210  0.2079
  739DECAN   C4 7374   9.123   3.969   8.687  0.0839  0.0733 -0.4379
  739DECAN   C5 7375   9.121   3.833   8.759 -0.7512  0.4114  0.1865
  739DECAN   C6 7376   8.979   3.773   8.757 -0.7349  0.3764  0.1063
  739DECAN   C7 7377   8.929   3.719   8.621 -0.4571  0.2606  0.0494
  739DECAN   C8 7378   8.794   3.652   8.652  0.0873 -0.6760  0.4404
  739DECAN   C9 7379   8.709   3.628   8.526  0.3560 -0.5319  0.2286
  739DECAN  C10 7380   8.780   3.535   8.426  0.0236  0.1182 -0.6217
  740DECAN   C1 7381   9.671   7.128   8.461 -0.1292 -0.1294  0.0576
  740DECAN   C2 7382   9.634   7.108   8.609  0.4267 -0.6381  0.1308
  740DECAN   C3 7383   9.663   7.231   8.697 -0.4208 -0.3242 -0.0181
  740DECAN   C4 7384   9.593   7.241   8.833  0.0324 -0.2190  0.2112
  740DECAN   C5 7385   9.607   7.382   8.895  0.5447 -0.2885  0.2519
  740DECAN   C6 7386   9.570   7.492   8.794  0.4161 -0.3929  0.1860
  740DECAN   C7 7387   9.657   7.491   8.667  0.0889  0.5142 -0.0463
  740DECAN   C8 7388   9.620   7.596   8.560 -0.7225  0.0151 -0.2632
  740DECAN   C9 7389   9.730   7.629   8.457 -0.2073  0.1619  0.3296
  740DECAN  C10 7390   9.784   7.516   8.368  0.5103  0.7858 -0.0330
  741DECAN   C1 7391   7.527   5.967  11.364 -0.4743 -0.3977  0.0101
  741DECAN   C2 7392   7.421   5.963  11.253 -0.3137 -0.0959 -0.1548
  741DECAN   C3 7393   7.297   6.047  11.289 -0.0768  0.2934 -0.2350
  741DECAN   C4 7394   7.166   6.007  11.218 -0.0944 -0.0368 -0.0184
  741DECAN   C5 7395   7.150   6.078  11.083  0.0883 -0.1426 -0.0974
  741DECAN   C6 7396   7.028   6.042  10.995 -0.1039 -0.2169  0.2001
  741DECAN   C7 7397   6.885   6.046  11.052 -0.2216  0.2037 -0.1240
  741DECAN   C8 7398   6.871   5.970  11.185 -0.0611  0.0483 -0.1958
  741DECAN   C9 7399   6.740   6.002  11.258 -0.0235 -0.0278 -0.0941
  741DECAN  C10 7400   6.659   6.127  11.219  0.1938  0.0543 -0.2831
  742DECAN   C1 7401   6.905   8.011  12.328 -0.7022 -0.2023 -0.0893
  742DECAN   C2 7402   6.958   8.149  12.286 -0.1140 -0.3105  0.3023
  742DECAN   C3 7403   6.890   8.266  12.359 -0.1522  0.0473 -0.3033
  742DECAN   C4 7404   6.937   8.412  12.348  0.1526 -0.0458 -0.2522
  742DECAN   C5 7405   6.845   8.518  12.412  0.1110 -0.2465  0.0210
  742DECAN   C6 7406   6.874   8.663  12.371 -0.2219 -0.2969 -0.3906
  742DECAN   C7 7407   6.759   8.748  12.429 -0.0196 -0.2433 -0.0669
  742DECAN   C8 7408   6.771   8.901  12.414 -0.4350 -0.2026 -0.0092
  742DECAN   C9 7409   6.736   8.934  12.268  0.4415  0.3748 -0.0935
  742DECAN  C10 7410   6.689   9.080  12.256  0.4407  0.3714 -0.1303
  743DECAN   C1 7411   2.729   3.036  10.656  0.0051 -0.7526  0.2107
  743DECAN   C2 7412   2.655   3.170  10.675 -0.0405 -0.7701  0.1578
  743DECAN   C3 7413   2.633   3.211  10.822 -0.2309 -0.0143 -0.0744
  743DECAN   C4 7414   2.565   3.346  10.853 -0.0931 -0.0863  0.5427
  743DECAN   C5 7415   2.438   3.383  10.776 -0.0242 -0.1636  0.3909
  743DECAN   C6 7416   2.355   3.502  10.828 -0.0332  0.0326 -0.0692
  743DECAN   C7 7417   2.235   3.541  10.738  0.3818  0.7338 -0.3316
  743DECAN   C8 7418   2.186   3.672  10.801  0.0712  0.5128 -0.1081
  743DECAN   C9 7419   2.110   3.659  10.934 -0.2862  0.5665 -0.3048
  743DECAN  C10 7420   2.106   3.780  11.029  0.4271  0.4047 -0.0658
  744DECAN   C1 7421   4.839   1.719  11.935  0.0229  0.1116 -0.3395
  744DECAN   C2 7422   4.864   1.866  11.973 -0.7428  0.1815 -0.0918
  744DECAN   C3 7423   4.888   1.856  12.125  0.3805  0.5164 -0.2372
  744DECAN   C4 7424   4.964   1.980  12.176  0.5076  0.2619  0.1986
  744DECAN   C5 7425   5.044   1.962  12.306  0.0348 -0.3291  0.4152
  744DECAN   C6 7426   5.176   1.884  12.293  0.1649 -0.0177 -0.1979
  744DECAN   C7 7427   5.260   1.870  12.421  0.0259 -1.0239 -0.2071
  744DECAN   C8 7428   5.183   1.792  12.530 -0.0750 -0.4426  0.1396
  744DECAN   C9 7429   5.249   1.758  12.665  0.2467 -0.3496  0.0067
  744DECAN  C10 7430   5.376   1.671  12.653  0.2702 -0.2316 -0.6439
  745DECAN   C1 7431   2.485   8.237  10.837 -0.1742 -0.0758 -0.3240
  745DECAN   C2 7432   2.533   8.199  10.978  0.0009 -0.3633 -0.4603
  745DECAN   C3 7433   2.531   8.327  11.062 -0.0263 -0.6477 -0.0279
  745DECAN   C4 7434   2.607   8.315  11.196 -0.2817 -0.2138  0.1619
  745DECAN   C5 7435   2.536   8.211  11.285 -0.2342 -0.2449  0.1628
  745DECAN   C6 7436   2.594   8.209  11.428  0.5090  0.1072 -0.1250
  745DECAN   C7 7437   2.541   8.094  11.515 -0.2579  0.2922 -0.3313
  745DECAN   C8 7438   2.593   7.959  11.463  0.1677  0.3047  0.0515
  745DECAN   C9 7439   2.551   7.850  11.564 -0.6557  0.7077  0.1520
  745DECAN  C10 7440   2.600   7.879  11.707 -0.4566 -0.1308  0.2609
  746DECAN   C1 7441   8.275   7.048   9.416  0.2289  0.3883 -0.3869
  746DECAN   C2 7442   8.174   7.154   9.369 -0.2406  0.4140  0.6528
  746DECAN   C3 7443   8.033   7.097   9.394 -0.1758 -0.0973 -0.0891
  746DECAN   C4 7444   7.930   7.203   9.350 -0.2311  0.1208  0.5446
  746DECAN   C5 7445   7.958   7.348   9.392  0.9135  0.0885 -0.0847
  746DECAN   C6 7446   8.077   7.400   9.308  0.5029  0.0624 -0.6850
  746DECAN   C7 7447   8.138   7.532   9.358  0.3681 -0.0825 -0.1397
  746DECAN   C8 7448   8.233   7.516   9.478 -0.0258 -0.1915  0.1622
  746DECAN   C9 7449   8.276   7.649   9.544 -0.4830  0.0545 -0.0275
  746DECAN  C10 7450   8.277   7.773   9.454  0.8800 -0.2533 -0.4690
  747DECAN   C1 7451   9.340   7.406   6.653 -0.0575  0.3120 -0.2201
  747DECAN   C2 7452   9.362   7.387   6.502  0.3345 -0.7120 -0.0396
  747DECAN   C3 7453   9.457   7.497   6.452 -0.2767 -0.1586  0.0138
  747DECAN   C4 7454   9.449   7.504   6.298  0.4663  0.1459 -0.0159
  747DECAN   C5 7455   9.502   7.378   6.228  0.3416  0.0500  0.0611
  747DECAN   C6 7456   9.497   7.366   6.074 -0.6086 -0.6061  0.1377
  747DECAN   C7 7457   9.589   7.262   6.009 -0.1168  0.0822 -0.2852
  747DECAN   C8 7458   9.573   7.131   6.089 -0.9362 -0.1436 -0.8061
  747DECAN   C9 7459   9.661   7.015   6.038 -0.0607  0.0198  0.3113
  747DECAN  C10 7460   9.598   6.883   6.086  0.1060 -0.1733  0.0008
  748DECAN   C1 7461   2.655   4.210  14.164  0.4795 -0.3327 -0.8152
  748DECAN   C2 7462   2.520   4.136  14.156  0.4293 -0.3488  0.0681
  748DECAN   C3 7463   2.414   4.221  14.228  0.7603  0.4182 -0.3381
  748DECAN   C4 7464   2.265   4.181  14.222  0.7630  0.4272 -0.4754
  748DECAN   C5 7465   2.162   4.286  14.268 -0.1233 -0.3482 -0.6790
  748DECAN   C6 7466   2.014   4.243  14.282 -0.2745  0.3234 -0.1496
  748DECAN   C7 7467   1.917   4.362  14.272 -0.2486  0.3284 -0.3436
  748DECAN   C8 7468   1.783   4.290  14.251 -0.0053 -0.0868 -0.4844
  748DECAN   C9 7469   1.663   4.387  14.250 -0.0744 -0.1499  0.6243
  748DECAN  C10 7470   1.532   4.309  14.272 -0.4392  0.2819  0.0094
  749DECAN   C1 7471   1.614   5.021   8.473  0.3254  0.2910 -0.0998
  749DECAN   C2 7472   1.578   5.147   8.555 -0.0005  0.0529  0.1252
  749DECAN   C3 7473   1.436   5.198   8.525 -0.0106  0.0977  0.2470
  749DECAN   C4 7474   1.397   5.347   8.533  0.1555  0.1907 -0.5495
  749DECAN   C5 7475   1.472   5.425   8.423  0.4365 -0.0668 -0.5417
  749DECAN   C6 7476   1.500   5.575   8.441  0.1089 -0.0269 -0.3523
  749DECAN   C7 7477   1.603   5.599   8.553  0.2079  0.2366 -0.4978
  749DECAN   C8 7478   1.637   5.748   8.573  0.6097  0.0023  0.6740
  749DECAN   C9 7479   1.738   5.756   8.689  1.0998  0.4981  0.2219
  749DECAN  C10 7480   1.753   5.901   8.741  0.1095  0.6481  0.1163
  750DECAN   C1 7481   6.470   9.745  10.085 -0.2525  0.2214  0.2486
  750DECAN   C2 7482   6.492   9.605  10.024 -0.2318  0.2609  0.1662
  750DECAN   C3 7483   6.473   9.597   9.872  0.8517  0.5271  0.0083
  750DECAN   C4 7484   6.527   9.466   9.812  0.1503  0.1248  0.2379
  750DECAN   C5 7485   6.529   9.442   9.660 -0.4078 -0.6327  0.3437
  750DECAN   C6 7486   6.630   9.330   9.627  0.2015  0.0356 -0.1010
  750DECAN   C7 7487   6.622   9.277   9.482  0.5190  0.5382 -0.3052
  750DECAN   C8 7488   6.698   9.148   9.445 -0.5411 -0.1551 -0.1080
  750DECAN   C9 7489   6.691   9.094   9.301 -0.0728  0.0397 -0.2030
  750DECAN  C10 7490   6.737   9.211   9.212 -0.0838  0.2902  0.1158
  751DECAN   C1 7491   8.635   4.691   8.202  0.2473  0.2781  0.7776
  751DECAN   C2 7492   8.788   4.689   8.211  0.2700 -0.0416  0.3625
  751DECAN   C3 7493   8.869   4.783   8.119  0.0224  0.0135  0.2022
  751DECAN   C4 7494   8.845   4.934   8.138  0.5074  0.1494 -0.2457
  751DECAN   C5 7495   8.839   5.025   8.015 -0.4443 -0.2373 -0.4938
  751DECAN   C6 7496   8.949   5.007   7.909 -0.0211  0.0545 -0.1070
  751DECAN   C7 7497   8.924   5.073   7.772 -0.1373 -0.0891 -0.1550
  751DECAN   C8 7498   9.031   5.030   7.670  0.3653  0.2910  0.2072
  751DECAN   C9 7499   9.010   5.109   7.539 -0.0446  0.2284  0.2344
  751DECAN  C10 7500   9.131   5.089   7.446 -0.2741 -0.2541  0.0319
  752DECAN   C1 7501   1.613  10.774  13.421  0.4006  0.2804  0.2751
  752DECAN   C2 7502   1.543  10.658  13.349 -0.3084  0.5029  0.5934
  752DECAN   C3 7503   1.410  10.606  13.408 -0.3970 -0.1041 -0.1086
  752DECAN   C4 7504   1.370  10.479  13.332  0.0400 -0.1270 -0.3017
  752DECAN   C5 7505   1.470  10.363  13.352 -0.2662 -0.3529 -0.0658
  752DECAN   C6 7506   1.437  10.257  13.245  0.0125 -0.2198 -0.2849
  752DECAN   C7 7507   1.486  10.114  13.275  0.3402 -0.1987 -0.7160
  752DECAN   C8 7508   1.637  10.108  13.308  0.1754 -0.1267  0.0811
  752DECAN   C9 7509   1.728  10.107  13.183 -0.1151  0.8442 -0.1456
  752DECAN  C10 7510   1.878  10.121  13.216  0.0453 -0.4008 -0.3196
  753DECAN   C1 7511   4.265   2.439  14.352  0.4352 -0.5630 -0.0933
  753DECAN   C2 7512   4.225   2.470  14.498 -0.4956  0.4697 -0.5572
  753DECAN   C3 7513   4.340   2.447  14.596 -0.6735  0.4190 -0.3600
  753DECAN   C4 7514   4.312   2.476  14.745 -0.0571 -0.0651 -0.1436
  753DECAN   C5 7515   4.171   2.434  14.789 -0.0948 -0.3028 -0.4827
  753DECAN   C6 7516   4.132   2.516  14.914  0.2632 -0.3043 -0.3699
  753DECAN   C7 7517   3.996   2.474  14.971  0.0169  0.6423 -0.2463
  753DECAN   C8 7518   3.885   2.539  14.886 -0.5131  0.0358 -0.0278
  753DECAN   C9 7519   3.884   2.690  14.915 -0.4166 -0.0020  0.1715
  753DECAN  C10 7520   4.003   2.769  14.856 -0.4464 -0.5109 -0.5783
  754DECAN   C1 7521   6.434  11.207   8.589  0.2690 -0.5512 -0.3259
  754DECAN   C2 7522   6.518   0.065   8.511  0.4307 -0.2267  0.2717
  754DECAN   C3 7523   6.448   0.192   8.459  0.1852 -0.3961  0.1885
  754DECAN   C4 7524   6.534   0.278   8.365 -0.1003  0.0095  0.2947
  754DECAN   C5 7525   6.467   0.414   8.335  0.5674  0.2700 -0.0359
  754DECAN   C6 7526   6.549   0.515   8.252  0.1660  0.2815 -0.4244
  754DECAN   C7 7527   6.454   0.629   8.213 -0.1962  0.0979 -0.0920
  754DECAN   C8 7528   6.514   0.743   8.128 -0.2021  0.1522 -0.0235
  754DECAN   C9 7529   6.633   0.817   8.191  0.2352 -0.0654 -0.5837
  754DECAN  C10 7530   6.657   0.960   8.139 -0.3658  0.4047  0.3971
  755DECAN   C1 7531   6.645   6.789   9.755 -0.1208  0.0580  0.1638
  755DECAN   C2 7532   6.721   6.702   9.857  0.0499 -0.4140 -0.3566
  755DECAN   C3 7533   6.872   6.733   9.856 -0.0601  0.1743  0.1240
  755DECAN   C4 7534   6.925   6.865   9.915 -0.2826  0.3824 -0.1416
  755DECAN   C5 7535   7.078   6.880   9.930 -0.1939 -0.6005  0.0158
  755DECAN   C6 7536   7.121   6.766  10.025 -0.3672 -0.8350 -0.1855
  755DECAN   C7 7537   7.273   6.755  10.044 -0.2463  0.0421 -0.5735
  755DECAN   C8 7538   7.336   6.885  10.097 -0.6240 -0.0501  0.1254
  755DECAN   C9 7539   7.329   7.010  10.006  0.0228 -0.0605  0.0542
  755DECAN  C10 7540   7.370   7.138  10.080  0.0710 -0.0236 -0.0372
  756DECAN   C1 7541   3.478   9.662  11.865  0.2057  0.1451  0.6524
  756DECAN   C2 7542   3.352   9.680  11.953 -0.4073 -0.3345 -0.1211
  756DECAN   C3 7543   3.387   9.674  12.102 -0.2366 -0.4451 -0.1663
  756DECAN   C4 7544   3.255   9.680  12.180 -0.1124 -0.4591  0.0471
  756DECAN   C5 7545   3.163   9.570  12.123  0.1334 -0.3219 -0.6241
  756DECAN   C6 7546   3.013   9.600  12.143  0.4167  1.1470 -0.5808
  756DECAN   C7 7547   2.953   9.598  12.285  0.2327  0.3730 -0.6652
  756DECAN   C8 7548   2.800   9.606  12.279  0.1727 -0.1337  0.1082
  756DECAN   C9 7549   2.739   9.477  12.222  0.4536 -0.2398  0.0475
  756DECAN  C10 7550   2.781   9.432  12.080 -0.2144 -0.1240 -0.1905
  757DECAN   C1 7551   6.603   3.082   4.939  0.2099  0.3431  0.2235
  757DECAN   C2 7552   6.742   3.147   4.924  0.5894 -0.4601  0.1731
  757DECAN   C3 7553   6.777   3.212   5.059  0.4728 -0.2486  0.1030
  757DECAN   C4 7554   6.763   3.122   5.183 -0.0563  0.0655  0.2736
  757DECAN   C5 7555   6.821   3.197   5.305 -0.4288  0.4151  0.2380
  757DECAN   C6 7556   6.817   3.099   5.424 -0.3493  0.1268  0.0069
  757DECAN   C7 7557   6.841   3.175   5.556  0.1461 -0.1109  0.0557
  757DECAN   C8 7558   6.723   3.266   5.594  0.2336 -0.1717  0.4752
  757DECAN   C9 7559   6.708   3.314   5.740 -0.3162  0.0286  0.3535
  757DECAN  C10 7560   6.602   3.421   5.772 -0.1944  0.1794  0.2552
  758DECAN   C1 7561   3.400   0.815   7.664 -0.3054 -0.1129 -0.3581
  758DECAN   C2 7562   3.411   0.663   7.642 -0.2484 -0.2038  0.2570
  758DECAN   C3 7563   3.542   0.598   7.689  0.1489  0.2834 -0.1579
  758DECAN   C4 7564   3.577   0.627   7.836  0.3942  0.0258 -0.1624
  758DECAN   C5 7565   3.711   0.566   7.879  0.3125  0.1525  0.2863
  758DECAN   C6 7566   3.726   0.555   8.032 -0.0110  0.1514  0.3185
  758DECAN   C7 7567   3.844   0.464   8.070  0.0375 -0.0806 -0.3723
  758DECAN   C8 7568   3.984   0.514   8.028  0.3796 -0.4760  0.2920
  758DECAN   C9 7569   4.086   0.428   8.105  0.1146 -0.7740  0.3129
  758DECAN  C10 7570   4.228   0.428   8.046  0.0055 -0.3338  0.0534
  759DECAN   C1 7571   4.252   9.645  14.350 -0.2113  0.5371 -0.6820
  759DECAN   C2 7572   4.314   9.742  14.453 -0.3698  0.1444 -0.2137
  759DECAN   C3 7573   4.451   9.796  14.410 -0.0138 -0.6496 -0.0889
  759DECAN   C4 7574   4.467   9.898  14.296 -0.0501 -0.8320 -0.2567
  759DECAN   C5 7575   4.602   9.928  14.229 -0.1128 -0.5945 -0.2761
  759DECAN   C6 7576   4.607  10.012  14.100  0.0207  0.3062  0.3051
  759DECAN   C7 7577   4.755  10.034  14.061 -0.0605 -0.2471 -0.3262
  759DECAN   C8 7578   4.793  10.116  13.937 -0.2660  0.3156 -0.0202
  759DECAN   C9 7579   4.944  10.135  13.913 -0.2283 -0.0216 -0.0568
  759DECAN  C10 7580   5.017  10.237  14.003 -0.3856 -0.4503  0.5655
  760DECAN   C1 7581   8.629   9.191  12.059  0.0909  0.0320  0.3561
  760DECAN   C2 7582   8.741   9.203  12.163 -0.2337  0.4849  0.6601
  760DECAN   C3 7583   8.831   9.323  12.129  0.1294  0.1795  0.5300
  760DECAN   C4 7584   8.962   9.330  12.210  0.1603  0.2100  0.4768
  760DECAN   C5 7585   9.064   9.423  12.142  0.1155 -0.3685 -0.4006
  760DECAN   C6 7586   9.179   9.460  12.237 -0.0654 -0.0301 -0.3100
  760DECAN   C7 7587   9.303   9.526  12.174  0.3226  0.0811  0.5433
  760DECAN   C8 7588   9.435   9.448  12.192  0.5315  0.3440  0.1808
  760DECAN   C9 7589   9.458   9.310  12.127 -0.2409  0.1271  0.3543
  760DECAN  C10 7590   9.452   9.305  11.973 -0.0591  0.1799  0.3464
  761DECAN   C1 7591   6.477   6.801  13.861  0.1632  0.6241 -0.6148
  761DECAN   C2 7592   6.481   6.686  13.963 -0.1191  0.6518 -0.5715
  761DECAN   C3 7593   6.600   6.705  14.058  0.1005 -0.5599 -0.5858
  761DECAN   C4 7594   6.619   6.598  14.167  0.0115  0.0767  0.0649
  761DECAN   C5 7595   6.760   6.607  14.228 -0.0282 -0.3867  0.2332
  761DECAN   C6 7596   6.862   6.624  14.114 -0.1475 -0.1973  0.1533
  761DECAN   C7 7597   7.008   6.635  14.159  0.0187 -0.2237 -0.3673
  761DECAN   C8 7598   7.101   6.592  14.045 -0.2244 -0.8088 -0.3467
  761DECAN   C9 7599   7.249   6.596  14.088 -0.3131 -0.3143 -0.0885
  761DECAN  C10 7600   7.258   6.505  14.212  0.4845  0.2392  0.2730
  762DECAN   C1 7601  10.116   5.334  13.856 -0.5797  0.4404 -0.5775
  762DECAN   C2 7602  10.111   5.476  13.916  0.3105  0.4055 -0.3965
  762DECAN   C3 7603  10.250   5.538  13.935  0.5743 -0.0920 -0.6794
  762DECAN   C4 7604  10.255   5.673  14.009  0.0889 -0.6070  0.3169
  762DECAN   C5 7605  10.210   5.653  14.155  0.1682 -0.1751  0.4031
  762DECAN   C6 7606  10.063   5.613  14.175  0.1056  0.0173  0.3251
  762DECAN   C7 7607  10.012   5.598  14.320  0.5423  0.3500  0.5154
  762DECAN   C8 7608   9.861   5.567  14.321  0.5624  0.2245 -0.0946
  762DECAN   C9 7609   9.780   5.640  14.429 -0.1788 -0.1900 -0.3664
  762DECAN  C10 7610   9.629   5.620  14.404 -0.1499 -0.2060 -0.5308
  763DECAN   C1 7611   3.332   9.506   6.880 -0.5716 -0.3214 -0.1502
  763DECAN   C2 7612   3.256   9.639   6.866  0.4017  0.3071  0.4503
  763DECAN   C3 7613   3.306   9.710   6.738 -0.0297 -0.1263  0.0358
  763DECAN   C4 7614   3.249   9.853   6.732 -0.2264 -0.1824  0.5069
  763DECAN   C5 7615   3.103   9.849   6.685  0.2306  0.1726 -0.9987
  763DECAN   C6 7616   3.042   9.990   6.669 -0.1593  0.2168  0.7157
  763DECAN   C7 7617   3.088  10.064   6.796  0.3798  0.3680  0.4367
  763DECAN   C8 7618   3.077  10.217   6.784  0.3528  0.3097 -0.2990
  763DECAN   C9 7619   3.114  10.292   6.913 -0.2613 -0.0245  0.0725
  763DECAN  C10 7620   3.098  10.445   6.901 -0.0347 -0.0641 -0.7823
  764DECAN   C1 7621   9.101   0.605   6.883 -0.0754 -0.2400  0.0880
  764DECAN   C2 7622   9.088   0.608   6.730 -0.1804 -0.1830  0.0983
  764DECAN   C3 7623   9.221   0.573   6.661 -0.1341 -0.1364  0.1633
  764DECAN   C4 7624   9.219   0.601   6.509  0.0447 -0.1203  0.1638
  764DECAN   C5 7625   9.359   0.580   6.449  0.2585  0.0818  0.5828
  764DECAN   C6 7626   9.421   0.439   6.458  0.0278 -0.0874 -0.3282
  764DECAN   C7 7627   9.568   0.435   6.410  0.2399  0.0492  0.2988
  764DECAN   C8 7628   9.628   0.299   6.449 -0.4604 -0.2533  0.3476
  764DECAN   C9 7629   9.755   0.248   6.378 -0.6275 -0.6444  0.3268
  764DECAN  C10 7630   9.808   0.113   6.429  0.5926 -0.2648  0.1063
  765DECAN   C1 7631   6.351   0.494   9.556  0.3778 -0.1811 -0.0361
  765DECAN   C2 7632   6.476   0.555   9.623  0.0048 -0.2742  0.7558
  765DECAN   C3 7633   6.453   0.705   9.650  0.2859 -0.0880  0.0041
  765DECAN   C4 7634   6.578   0.764   9.717  0.2165  0.0888 -0.0227
  765DECAN   C5 7635   6.580   0.915   9.745  0.1574 -0.0255  0.6124
  765DECAN   C6 7636   6.594   1.010   9.624  0.4805  0.5273  1.0730
  765DECAN   C7 7637   6.628   1.159   9.642 -0.3803  0.8129  0.4148
  765DECAN   C8 7638   6.587   1.248   9.524  0.1041  0.2239 -0.2034
  765DECAN   C9 7639   6.647   1.186   9.396  0.4562  0.1739 -0.0150
  765DECAN  C10 7640   6.624   1.283   9.279  0.2917  0.4255  0.2240
  766DECAN   C1 7641   7.788   3.032  11.905  0.1226  0.1732 -0.1209
  766DECAN   C2 7642   7.884   2.914  11.928 -0.4478 -0.2866 -0.0806
  766DECAN   C3 7643   8.017   2.961  11.988 -0.4914 -0.2538 -0.0079
  766DECAN   C4 7644   8.074   2.840  12.064 -0.3818 -0.1594  0.0603
  766DECAN   C5 7645   8.099   2.722  11.969  0.3813 -0.0489  0.1206
  766DECAN   C6 7646   8.191   2.758  11.851 -0.1412  0.3704 -0.1596
  766DECAN   C7 7647   8.220   2.642  11.754 -0.1255  0.2055  0.0417
  766DECAN   C8 7648   8.316   2.699  11.648 -0.2060 -0.1987 -0.2538
  766DECAN   C9 7649   8.400   2.586  11.587  0.1870 -0.0079 -0.0694
  766DECAN  C10 7650   8.518   2.538  11.673  0.6199  0.2027 -0.5367
  767DECAN   C1 7651   9.535   3.758  13.746 -0.5760 -0.2173  0.3875
  767DECAN   C2 7652   9.479   3.889  13.687  0.0060 -0.0661  0.1570
  767DECAN   C3 7653   9.591   3.965  13.615 -0.1481 -0.3018 -0.3420
  767DECAN   C4 7654   9.525   4.090  13.553  0.0266  0.3552  0.7582
  767DECAN   C5 7655   9.630   4.192  13.506  0.1814 -0.2465 -0.2280
  767DECAN   C6 7656   9.579   4.286  13.394  0.1946 -0.5580 -0.4968
  767DECAN   C7 7657   9.692   4.385  13.359 -0.2405  0.1154 -0.0078
  767DECAN   C8 7658   9.650   4.503  13.269  0.2173  0.2983  0.0158
  767DECAN   C9 7659   9.755   4.613  13.250  0.1819  0.3635  0.2014
  767DECAN  C10 7660   9.722   4.713  13.137 -0.3653  0.0749  0.1060
  768DECAN   C1 7661   8.635   6.024   4.824 -0.3160  0.8130  0.1227
  768DECAN   C2 7662   8.770   6.042   4.753 -0.2653  0.2227  0.0700
  768DECAN   C3 7663   8.863   6.139   4.828 -0.0304  0.3019 -0.3212
  768DECAN   C4 7664   9.005   6.156   4.770  0.0188 -0.5389 -0.4528
  768DECAN   C5 7665   9.095   6.238   4.863  0.0537 -0.6936 -0.3492
  768DECAN   C6 7666   9.238   6.261   4.810  0.1872 -0.3856  0.1410
  768DECAN   C7 7667   9.342   6.316   4.910 -0.4294  0.2870  0.4194
  768DECAN   C8 7668   9.489   6.331   4.867 -0.5743  0.6690  0.0451
  768DECAN   C9 7669   9.563   6.395   4.986  0.1147  0.4258 -0.2487
  768DECAN  C10 7670   9.581   6.304   5.108  0.1201  0.3210 -0.3277
  769DECAN   C1 7671   8.854   4.230  12.432 -0.1055  0.2205 -0.1692
  769DECAN   C2 7672   8.982   4.176  12.365  0.0326  0.3200  0.0110
  769DECAN   C3 7673   9.092   4.113  12.452 -0.2428  0.0519  0.1667
  769DECAN   C4 7674   9.054   4.011  12.562  0.0290 -0.2950 -0.0582
  769DECAN   C5 7675   9.166   3.979  12.663  0.2244  0.0551 -0.1610
  769DECAN   C6 7676   9.112   3.889  12.776 -0.2997  0.0283 -0.4289
  769DECAN   C7 7677   9.029   3.967  12.881  0.2689  0.5592 -0.3680
  769DECAN   C8 7678   8.890   4.007  12.829 -0.2308 -0.5799  0.0523
  769DECAN   C9 7679   8.824   4.096  12.936  0.2115 -0.4099  0.1854
  769DECAN  C10 7680   8.904   4.227  12.956 -0.4475  0.1046 -0.5103
  770DECAN   C1 7681   3.736   4.393   8.801  0.0339  0.1517 -0.2586
  770DECAN   C2 7682   3.612   4.316   8.847  0.0957 -0.0947 -0.5037
  770DECAN   C3 7683   3.508   4.398   8.926  0.9214  0.2660  0.2233
  770DECAN   C4 7684   3.446   4.518   8.853 -0.0704 -0.2815  0.1431
  770DECAN   C5 7685   3.379   4.628   8.937  0.5885  0.3398 -0.1296
  770DECAN   C6 7686   3.317   4.740   8.853  0.6922  0.3544 -0.1868
  770DECAN   C7 7687   3.263   4.856   8.939 -0.2593 -0.1013 -0.1547
  770DECAN   C8 7688   3.121   4.905   8.905 -0.4598 -0.4664  0.1354
  770DECAN   C9 7689   3.093   4.950   8.760 -0.3090 -0.8371 -0.0096
  770DECAN  C10 7690   2.945   4.990   8.739 -0.1929 -0.3822  0.0290
  771DECAN   C1 7691   9.778   2.247   6.077 -0.0795  0.3164  0.3408
  771DECAN   C2 7692   9.760   2.094   6.064 -0.0942  0.3358  0.1255
  771DECAN   C3 7693   9.665   2.028   6.165 -0.2683  0.0384 -0.2325
  771DECAN   C4 7694   9.645   1.879   6.132  0.1291 -0.2041  0.5943
  771DECAN   C5 7695   9.599   1.773   6.234 -0.3458 -0.2621  0.3218
  771DECAN   C6 7696   9.628   1.630   6.184  0.2707 -0.0746  0.1258
  771DECAN   C7 7697   9.594   1.600   6.037 -0.3469  0.0489  0.2421
  771DECAN   C8 7698   9.628   1.456   5.995 -0.0480  0.0625  0.4360
  771DECAN   C9 7699   9.560   1.404   5.867  0.1195  0.5517  0.1454
  771DECAN  C10 7700   9.591   1.260   5.822 -0.0295  0.6906 -0.4109
  772DECAN   C1 7701   6.699   0.133   9.338 -0.1444  0.6994 -0.3552
  772DECAN   C2 7702   6.792   0.236   9.404 -0.4572  0.7087  0.0771
  772DECAN   C3 7703   6.820   0.214   9.554  0.6503  0.1159 -0.2000
  772DECAN   C4 7704   6.893   0.087   9.601  0.0804 -0.1262  0.0352
  772DECAN   C5 7705   6.887   0.070   9.754 -0.3165  0.0958  0.0464
  772DECAN   C6 7706   6.743   0.104   9.797 -0.4745 -0.5717  0.0554
  772DECAN   C7 7707   6.741   0.090   9.951  0.6147 -0.2020  0.1121
  772DECAN   C8 7708   6.627   0.153  10.034  0.2305  0.1319 -0.6534
  772DECAN   C9 7709   6.629   0.307  10.032  0.0682  0.1531  0.3962
  772DECAN  C10 7710   6.614   0.368   9.891  0.5391 -0.1156  0.2275
  773DECAN   C1 7711   7.211   2.639  12.970  0.2878 -0.4841 -0.1493
  773DECAN   C2 7712   7.083   2.689  12.901 -0.5042 -1.0294  0.8918
  773DECAN   C3 7713   6.998   2.575  12.842 -0.3649 -0.7732  0.1837
  773DECAN   C4 7714   6.873   2.619  12.764  0.1648 -0.3740 -0.4497
  773DECAN   C5 7715   6.777   2.505  12.724 -0.0670 -0.3281 -0.0230
  773DECAN   C6 7716   6.834   2.415  12.613  0.1846  0.1442 -0.2837
  773DECAN   C7 7717   6.745   2.293  12.581 -0.0137  0.3192 -0.3976
  773DECAN   C8 7718   6.821   2.204  12.480 -0.2813 -0.4189  0.0472
  773DECAN   C9 7719   6.834   2.264  12.339 -0.0964  0.2028  0.3252
  773DECAN  C10 7720   6.698   2.308  12.283 -0.0737 -0.1858 -0.0384
  774DECAN   C1 7721   1.876   7.548   8.001 -0.4911  0.0782 -0.3208
  774DECAN   C2 7722   1.849   7.609   8.139  0.4580 -0.5170  0.1367
  774DECAN   C3 7723   1.824   7.516   8.260 -0.1992 -0.0591  0.3548
  774DECAN   C4 7724   1.679   7.465   8.267 -0.2550 -0.0098 -0.3692
  774DECAN   C5 7725   1.681   7.316   8.306 -0.1352  0.0520 -0.1368
  774DECAN   C6 7726   1.778   7.222   8.233 -0.4338 -0.5766  0.2561
  774DECAN   C7 7727   1.931   7.232   8.254 -0.3589 -0.6815 -0.2194
  774DECAN   C8 7728   2.011   7.132   8.168 -0.2448 -0.6573 -0.1397
  774DECAN   C9 7729   1.987   7.149   8.017 -0.3968  0.2147 -0.0236
  774DECAN  C10 7730   1.847   7.095   7.985 -0.5214  0.6132 -0.1544
  775DECAN   C1 7731  10.686   4.364   6.268 -0.0446 -0.1572 -0.1412
  775DECAN   C2 7732  10.538   4.402   6.286  0.0301  0.3624 -0.5900
  775DECAN   C3 7733  10.519   4.450   6.431 -0.1575  0.3057 -0.5960
  775DECAN   C4 7734  10.378   4.508   6.455  0.0402  0.3965  0.4138
  775DECAN   C5 7735  10.349   4.632   6.370  0.2327  0.4171  0.3758
  775DECAN   C6 7736  10.334   4.767   6.442  0.1330  0.4225  0.3454
  775DECAN   C7 7737  10.201   4.780   6.518 -0.0153  0.3045  0.1073
  775DECAN   C8 7738  10.156   4.652   6.591  0.3013 -0.1488 -0.4879
  775DECAN   C9 7739  10.026   4.658   6.673  0.3498 -0.6063 -0.3725
  775DECAN  C10 7740   9.964   4.517   6.668 -0.3954 -0.2758 -0.6449
  776DECAN   C1 7741   4.661   0.362   8.533 -0.1405 -0.1376  0.2577
  776DECAN   C2 7742   4.604   0.505   8.534  0.5157  0.1286  0.0139
  776DECAN   C3 7743   4.599   0.568   8.393 -0.4865 -0.0745 -0.0534
  776DECAN   C4 7744   4.569   0.719   8.398  0.2175  0.0768 -0.3154
  776DECAN   C5 7745   4.428   0.752   8.448  0.4665  0.1886  0.3157
  776DECAN   C6 7746   4.396   0.665   8.571 -0.0060 -0.0315  0.0363
  776DECAN   C7 7747   4.265   0.712   8.638 -0.2027  0.0009 -0.3666
  776DECAN   C8 7748   4.272   0.848   8.709 -0.2687 -0.2364  0.0961
  776DECAN   C9 7749   4.155   0.871   8.807 -0.6613  0.4051 -0.5185
  776DECAN  C10 7750   4.161   1.006   8.881  0.0509 -0.1211  0.4019
  777DECAN   C1 7751  10.483   7.339   8.480 -0.0710  0.0381 -0.1368
  777DECAN   C2 7752  10.527   7.248   8.365  0.0001 -0.0344 -0.0531
  777DECAN   C3 7753  10.429   7.231   8.247  0.0861 -0.4467 -0.0669
  777DECAN   C4 7754  10.492   7.151   8.131  0.1407  0.0183 -0.3601
  777DECAN   C5 7755  10.542   7.016   8.187 -0.4795  0.0691  0.3280
  777DECAN   C6 7756  10.577   6.912   8.080  0.3751  0.3925  0.2872
  777DECAN   C7 7757  10.618   6.781   8.152 -0.3664  0.0107  0.0224
  777DECAN   C8 7758  10.657   6.667   8.056 -0.8933 -0.1399 -0.0204
  777DECAN   C9 7759  10.724   6.541   8.115 -0.3210  0.3627  0.4226
  777DECAN  C10 7760  10.776   6.450   8.003  0.6855  0.7175  0.5890
  778DECAN   C1 7761   8.391   0.806  12.342 -0.4481  0.2860  0.0503
  778DECAN   C2 7762   8.468   0.875  12.456  0.2548  0.1630 -0.3400
  778DECAN   C3 7763   8.426   1.020  12.489  0.0612 -0.0315  0.2883
  778DECAN   C4 7764   8.477   1.061  12.628  0.2211 -0.6019  0.4032
  778DECAN   C5 7765   8.415   1.195  12.673  0.3303 -0.2780 -0.3982
  778DECAN   C6 7766   8.433   1.231  12.821  0.2364 -0.0948 -0.4302
  778DECAN   C7 7767   8.579   1.263  12.855  0.1534 -0.2041  0.0433
  778DECAN   C8 7768   8.679   1.151  12.891  0.4238  0.0317  0.0285
  778DECAN   C9 7769   8.653   1.078  13.023  0.2305  0.2765  0.1275
  778DECAN  C10 7770   8.752   0.960  13.032 -0.4554 -0.2917  0.3065
  779DECAN   C1 7771   6.478   5.286  14.490  0.0547  0.1699 -0.2265
  779DECAN   C2 7772   6.493   5.382  14.371 -0.1923 -0.1024 -0.4792
  779DECAN   C3 7773   6.636   5.431  14.338 -0.1117  0.0602  0.1039
  779DECAN   C4 7774   6.632   5.525  14.216  0.4067 -0.1514 -0.0775
  779DECAN   C5 7775   6.543   5.485  14.096 -0.3301  0.1396  0.3666
  779DECAN   C6 7776   6.577   5.560  13.966 -0.5032  0.2559  0.3888
  779DECAN   C7 7777   6.502   5.495  13.848  0.2104  0.0424  0.0506
  779DECAN   C8 7778   6.507   5.566  13.711  0.3679 -0.2115 -0.0749
  779DECAN   C9 7779   6.393   5.529  13.614  0.2314  0.3774 -0.1391
  779DECAN  C10 7780   6.265   5.605  13.653 -0.1185 -0.2888  0.0234
  780DECAN   C1 7781   5.463   3.043  13.733 -0.1397  0.1053 -0.1775
  780DECAN   C2 7782   5.526   3.061  13.873 -0.1988  0.0398 -0.1430
  780DECAN   C3 7783   5.504   2.948  13.975  0.2731  0.2121  0.1523
  780DECAN   C4 7784   5.555   2.967  14.119  0.7006  0.2117  0.0043
  780DECAN   C5 7785   5.524   2.856  14.221  0.2899  0.1450 -0.1890
  780DECAN   C6 7786   5.590   2.860  14.360  0.0224 -0.3438 -0.0469
  780DECAN   C7 7787   5.563   2.993  14.432  0.0219 -0.1294 -0.4433
  780DECAN   C8 7788   5.676   3.031  14.529  0.0522 -0.2327 -0.4389
  780DECAN   C9 7789   5.815   3.024  14.463  0.1953 -0.4525 -0.1172
  780DECAN  C10 7790   5.924   3.073  14.560  0.3196 -0.6716 -0.1442
  781DECAN   C1 7791   4.116   1.800   9.064 -0.3845 -0.3422  0.0254
  781DECAN   C2 7792   4.151   1.755   8.920  0.2481  0.2938 -0.0211
  781DECAN   C3 7793   4.074   1.841   8.819 -0.1415  0.5498  0.4919
  781DECAN   C4 7794   3.920   1.835   8.832 -0.1738  0.0457 -0.1412
  781DECAN   C5 7795   3.866   1.895   8.962 -0.4070 -0.4390 -0.0136
  781DECAN   C6 7796   3.713   1.906   8.981 -0.4023 -0.0437 -0.2139
  781DECAN   C7 7797   3.683   1.989   9.107 -0.6264 -0.3775 -0.0466
  781DECAN   C8 7798   3.533   2.006   9.135 -0.5717 -0.0690  0.0651
  781DECAN   C9 7799   3.461   1.871   9.119  0.2155 -0.4734 -0.1250
  781DECAN  C10 7800   3.307   1.873   9.123  0.2231  0.1487 -0.0559
  782DECAN   C1 7801   5.663   8.170   6.108 -0.1551  0.3800 -0.1268
  782DECAN   C2 7802   5.765   8.183   5.993 -0.1662 -0.2822 -0.2154
  782DECAN   C3 7803   5.792   8.324   5.939 -0.0132 -0.2352 -0.0173
  782DECAN   C4 7804   5.721   8.364   5.808  0.3657 -0.3347 -0.2560
  782DECAN   C5 7805   5.704   8.514   5.777  0.0863 -0.3042  0.0319
  782DECAN   C6 7806   5.581   8.558   5.858  0.1358 -0.2890  0.0993
  782DECAN   C7 7807   5.549   8.707   5.876  0.1277 -0.2867  0.0642
  782DECAN   C8 7808   5.425   8.725   5.966  0.3129 -0.2725  0.3180
  782DECAN   C9 7809   5.427   8.651   6.101  0.7748  0.5578  0.7770
  782DECAN  C10 7810   5.439   8.499   6.078  0.1490  0.5657  0.3689
  783DECAN   C1 7811  10.517   4.016   7.000  0.0595  0.7516 -0.0331
  783DECAN   C2 7812  10.476   3.887   6.926 -0.3245  0.5176  0.5725
  783DECAN   C3 7813  10.449   3.761   7.009  0.3633  0.0173  0.0505
  783DECAN   C4 7814  10.412   3.645   6.914 -0.0401 -0.2511  0.5287
  783DECAN   C5 7815  10.366   3.514   6.982 -0.0248 -0.4214  0.2136
  783DECAN   C6 7816  10.324   3.392   6.898 -0.3179  0.1929 -0.5473
  783DECAN   C7 7817  10.307   3.275   6.996  0.1482 -0.0079 -0.7041
  783DECAN   C8 7818  10.244   3.151   6.930 -0.7180  0.3151 -0.4914
  783DECAN   C9 7819  10.228   3.027   7.019 -0.0645  0.6487  0.0968
  783DECAN  C10 7820  10.360   2.955   7.052 -0.2485  0.1283 -0.2970
  784DECAN   C1 7821   9.153   4.566   4.367 -0.3357  0.7374 -0.8234
  784DECAN   C2 7822   9.246   4.657   4.451  0.5574 -0.5391 -0.3994
  784DECAN   C3 7823   9.323   4.763   4.371  0.0703  0.0453 -0.0994
  784DECAN   C4 7824   9.435   4.852   4.429 -0.2061  0.3433 -0.0167
  784DECAN   C5 7825   9.483   4.950   4.321 -0.5340  0.5287  0.0067
  784DECAN   C6 7826   9.524   5.078   4.395  0.3009  0.5045 -0.4037
  784DECAN   C7 7827   9.413   5.144   4.479  0.2282 -0.5279  0.3291
  784DECAN   C8 7828   9.468   5.262   4.561 -0.0662  0.2177 -0.5175
  784DECAN   C9 7829   9.365   5.374   4.580 -0.3626 -0.0739 -0.3916
  784DECAN  C10 7830   9.411   5.512   4.630 -0.3361 -0.1999 -0.0671
  785DECAN   C1 7831   1.820   3.401  12.018 -0.7098 -0.0284 -0.5687
  785DECAN   C2 7832   1.878   3.263  11.978 -0.2103  0.0033  0.0266
  785DECAN   C3 7833   1.873   3.156  12.088 -0.2734 -0.3436 -0.3131
  785DECAN   C4 7834   1.910   3.011  12.051 -0.0286 -0.4730  0.4248
  785DECAN   C5 7835   2.064   3.019  12.045 -0.0426 -0.0961  0.5212
  785DECAN   C6 7836   2.126   2.912  11.952 -0.1606  0.5576 -0.3259
  785DECAN   C7 7837   2.274   2.918  11.913  0.0112 -0.4033  0.1484
  785DECAN   C8 7838   2.302   2.809  11.807  0.0266 -0.1598 -0.1008
  785DECAN   C9 7839   2.451   2.782  11.778  0.0753 -0.0846  0.0792
  785DECAN  C10 7840   2.476   2.696  11.654  0.8938  0.5004 -0.1652
  786DECAN   C1 7841   9.459   3.614   6.296 -0.3352 -0.1133  0.0752
  786DECAN   C2 7842   9.433   3.591   6.446 -0.0577  0.4335  0.2107
  786DECAN   C3 7843   9.294   3.529   6.473  0.3335 -0.6630 -0.2483
  786DECAN   C4 7844   9.259   3.529   6.622  0.2454  0.0607 -0.2662
  786DECAN   C5 7845   9.378   3.475   6.704 -0.1371 -0.0418  0.2266
  786DECAN   C6 7846   9.364   3.483   6.857 -0.2380 -0.0043  0.2161
  786DECAN   C7 7847   9.484   3.418   6.928 -0.0528  0.2416  0.1280
  786DECAN   C8 7848   9.486   3.442   7.080 -1.0064  0.4763  0.1081
  786DECAN   C9 7849   9.466   3.593   7.102 -0.5650  0.5425  0.0749
  786DECAN  C10 7850   9.562   3.680   7.019 -0.6023  0.0405 -0.5032
  787DECAN   C1 7851   4.818   6.699  11.042  0.1414  0.2826  0.4965
  787DECAN   C2 7852   4.754   6.743  10.909  0.1163  0.2861  0.5096
  787DECAN   C3 7853   4.752   6.893  10.876  0.4440  0.1211 -0.2707
  787DECAN   C4 7854   4.630   6.937  10.794  0.0242 -0.3136  0.1166
  787DECAN   C5 7855   4.630   6.890  10.647 -0.5681 -0.1427  0.0594
  787DECAN   C6 7856   4.641   6.736  10.646 -1.2003 -0.1913  0.3981
  787DECAN   C7 7857   4.665   6.682  10.504  0.8810  0.1384  0.5988
  787DECAN   C8 7858   4.652   6.529  10.498  0.1540  0.2299 -0.4027
  787DECAN   C9 7859   4.687   6.473  10.359  0.6367 -0.4138 -0.0331
  787DECAN  C10 7860   4.681   6.320  10.352 -0.0569 -0.3821 -0.3413
  788DECAN   C1 7861   2.094  11.035  11.918 -0.4006 -0.3905 -0.4251
  788DECAN   C2 7862   2.127  11.020  11.768 -0.3089  0.0205 -0.4476
  788DECAN   C3 7863   2.114  10.880  11.704  0.5071 -0.3475  0.1717
  788DECAN   C4 7864   2.167  10.869  11.560  0.0112  0.3147 -0.0699
  788DECAN   C5 7865   2.155  10.729  11.499  0.1608  0.1802  0.2083
  788DECAN   C6 7866   2.187  10.737  11.349 -0.6991  0.2805  0.0251
  788DECAN   C7 7867   2.129  10.866  11.290 -0.4850  0.3210 -0.0971
  788DECAN   C8 7868   2.132  10.869  11.136 -0.1801 -0.1956 -0.1002
  788DECAN   C9 7869   2.019  10.956  11.078  0.1124  0.0854 -0.2489
  788DECAN  C10 7870   2.010  10.954  10.924  0.0250  0.2335 -0.2453
  789DECAN   C1 7871   2.146   8.097   8.324  0.3273 -0.0826 -0.7102
  789DECAN   C2 7872   2.264   8.192   8.297 -0.2557  0.8129 -0.1855
  789DECAN   C3 7873   2.339   8.223   8.429 -0.5282 -0.0656  0.1825
  789DECAN   C4 7874   2.264   8.271   8.555 -0.0657  0.4120  0.2782
  789DECAN   C5 7875   2.139   8.190   8.592 -0.0199  0.1142 -0.1988
  789DECAN   C6 7876   2.066   8.255   8.712  0.0074 -0.2076 -0.0080
  789DECAN   C7 7877   2.016   8.398   8.690 -0.3315 -0.4112 -0.5903
  789DECAN   C8 7878   1.928   8.443   8.808  0.2278  0.0370 -0.3378
  789DECAN   C9 7879   1.874   8.587   8.803  0.0479 -0.0223 -0.1239
  789DECAN  C10 7880   1.823   8.643   8.937 -0.0965 -0.1072 -0.1432
  790DECAN   C1 7881   7.578   0.686  11.713  0.1352  0.2133  0.4150
  790DECAN   C2 7882   7.666   0.747  11.823  0.0885 -0.3971  0.7941
  790DECAN   C3 7883   7.636   0.893  11.859  0.1033 -0.1327 -0.2600
  790DECAN   C4 7884   7.673   0.981  11.738 -0.5111  0.3868 -0.0766
  790DECAN   C5 7885   7.627   1.128  11.732 -0.2067  0.4915  0.1531
  790DECAN   C6 7886   7.704   1.200  11.619 -0.1202 -0.4420 -0.3905
  790DECAN   C7 7887   7.856   1.224  11.629 -0.1671 -0.1226 -0.4299
  790DECAN   C8 7888   7.897   1.369  11.600  0.0707 -0.0806  0.1167
  790DECAN   C9 7889   8.039   1.392  11.545  0.1161  0.2420  0.3650
  790DECAN  C10 7890   8.074   1.542  11.548 -0.8202  0.4666  0.3477
  791DECAN   C1 7891   3.950   2.867   9.912  0.1371 -0.7072  0.6792
  791DECAN   C2 7892   3.966   2.767   9.796  0.3147 -0.2156  0.2768
  791DECAN   C3 7893   3.846   2.768   9.699  0.3886  0.2052  0.1868
  791DECAN   C4 7894   3.873   2.682   9.574 -0.1098 -0.3766  0.4761
  791DECAN   C5 7895   3.980   2.736   9.478 -0.5762 -0.0792  0.1122
  791DECAN   C6 7896   3.956   2.679   9.337 -0.2687  0.3059 -0.0992
  791DECAN   C7 7897   4.059   2.715   9.230 -0.0732  0.0178 -0.0122
  791DECAN   C8 7898   3.993   2.683   9.094 -0.3146  0.0969  0.0869
  791DECAN   C9 7899   4.080   2.711   8.970 -0.1985 -0.4050  0.0545
  791DECAN  C10 7900   4.020   2.675   8.833 -0.6219 -0.2045  0.1850
  792DECAN   C1 7901   7.731   5.872   8.513 -0.1459 -0.2042 -0.4661
  792DECAN   C2 7902   7.816   5.755   8.565  0.3086  0.3404  0.0270
  792DECAN   C3 7903   7.802   5.708   8.711 -0.0340  0.4721  0.0359
  792DECAN   C4 7904   7.806   5.823   8.814  0.7988  0.4425  0.0487
  792DECAN   C5 7905   7.772   5.780   8.958  0.4767 -0.4076 -0.2713
  792DECAN   C6 7906   7.655   5.681   8.968 -0.1087  0.3498  0.6175
  792DECAN   C7 7907   7.683   5.542   8.908 -0.5345  0.4803  0.0987
  792DECAN   C8 7908   7.592   5.426   8.954 -0.2138  0.0862 -0.2583
  792DECAN   C9 7909   7.660   5.292   8.918 -0.5568 -0.2004  0.1435
  792DECAN  C10 7910   7.631   5.244   8.774 -0.0531  0.2434 -0.1153
  793DECAN   C1 7911   5.196   8.191  11.366 -0.3206  0.3371 -0.0211
  793DECAN   C2 7912   5.245   8.059  11.304 -0.0453  0.3598  0.1486
  793DECAN   C3 7913   5.388   8.067  11.247 -0.1774  0.3402 -0.1838
  793DECAN   C4 7914   5.415   8.164  11.130  0.2961  0.4781  0.0402
  793DECAN   C5 7915   5.376   8.306  11.175 -0.9079  0.0890  0.2708
  793DECAN   C6 7916   5.411   8.421  11.078 -0.5035 -0.0234  0.2794
  793DECAN   C7 7917   5.554   8.411  11.023 -0.5037  0.2110  0.2350
  793DECAN   C8 7918   5.580   8.281  10.946  0.5029  0.2341  0.5204
  793DECAN   C9 7919   5.696   8.315  10.851 -0.1898  0.4174 -0.2713
  793DECAN  C10 7920   5.762   8.207  10.763  0.0001  0.4939 -0.2235
  794DECAN   C1 7921   5.076   8.957   9.246 -0.4253  0.2809 -0.0149
  794DECAN   C2 7922   5.212   9.028   9.230  0.0161 -0.5789 -0.1362
  794DECAN   C3 7923   5.227   9.118   9.106 -0.1912 -0.2815  0.0520
  794DECAN   C4 7924   5.368   9.179   9.101 -0.4149  0.2314 -0.0548
  794DECAN   C5 7925   5.415   9.251   8.974  0.3290  0.4526  0.3376
  794DECAN   C6 7926   5.563   9.288   8.951  0.4407 -0.2618 -0.1211
  794DECAN   C7 7927   5.590   9.406   8.856  0.4002 -0.2353 -0.1002
  794DECAN   C8 7928   5.724   9.388   8.781  0.2812  0.7862 -0.5809
  794DECAN   C9 7929   5.846   9.377   8.874 -0.3442 -0.3153  0.1460
  794DECAN  C10 7930   5.970   9.314   8.808 -0.1290 -0.3738  0.6050
  795DECAN   C1 7931   4.130   8.962   5.607 -0.3389 -0.7021 -0.1871
  795DECAN   C2 7932   4.046   9.000   5.731 -0.0738 -0.3880 -0.1011
  795DECAN   C3 7933   4.040   9.150   5.763 -0.2268 -0.2362 -0.8105
  795DECAN   C4 7934   3.952   9.175   5.887  0.2904 -0.0588 -0.4717
  795DECAN   C5 7935   4.010   9.133   6.023  0.1369  0.2844 -0.3007
  795DECAN   C6 7936   4.141   9.205   6.059  0.5131 -0.5374 -0.0069
  795DECAN   C7 7937   4.273   9.189   5.982  0.3427 -0.1645 -0.3819
  795DECAN   C8 7938   4.383   9.275   6.047 -0.1068 -0.0587  0.2506
  795DECAN   C9 7939   4.422   9.216   6.184  0.3513 -0.5691 -0.0964
  795DECAN  C10 7940   4.520   9.307   6.259  0.2240 -0.4571 -0.0662
  796DECAN   C1 7941   8.033   9.970  12.624 -0.3007 -0.6023 -0.6261
  796DECAN   C2 7942   8.151  10.068  12.626 -0.1922 -0.7415 -0.0650
  796DECAN   C3 7943   8.267  10.012  12.541  0.0542  0.3405 -0.4659
  796DECAN   C4 7944   8.379  10.114  12.517  0.0137  0.3487 -0.6228
  796DECAN   C5 7945   8.345  10.247  12.448  0.4287  0.9213  0.2514
  796DECAN   C6 7946   8.455  10.355  12.440  0.9813  0.3630  0.2280
  796DECAN   C7 7947   8.392  10.479  12.375  0.0423 -0.2144  0.0102
  796DECAN   C8 7948   8.328  10.447  12.238 -0.3349  0.1607  0.0963
  796DECAN   C9 7949   8.287  10.569  12.154 -0.0787  0.0867 -0.1364
  796DECAN  C10 7950   8.207  10.676  12.230  0.5213  0.4741 -0.0377
  797DECAN   C1 7951   3.545   6.724  14.961 -0.5348 -0.1139  0.7500
  797DECAN   C2 7952   3.493   6.586  14.917 -0.1735 -0.0115 -0.0115
  797DECAN   C3 7953   3.492   6.474  15.024 -0.8053  0.0150  0.0147
  797DECAN   C4 7954   3.388   6.363  15.003 -1.0893  0.4238 -0.7999
  797DECAN   C5 7955   3.416   6.290  14.870 -0.2053  0.1904 -0.4902
  797DECAN   C6 7956   3.331   6.170  14.825 -0.9710  0.3626  0.4493
  797DECAN   C7 7957   3.358   6.108  14.686  0.3526 -0.2406  0.9584
  797DECAN   C8 7958   3.495   6.037  14.688  0.5229  0.0621  0.2510
  797DECAN   C9 7959   3.615   6.128  14.657  0.1755  0.4179 -0.0654
  797DECAN  C10 7960   3.616   6.186  14.515 -0.1299  0.2436 -0.1397
  798DECAN   C1 7961   4.911   0.350  12.738 -0.1215 -0.3699  0.0220
  798DECAN   C2 7962   4.777   0.417  12.703 -0.1669 -0.4840 -0.0220
  798DECAN   C3 7963   4.651   0.337  12.743 -0.1742 -0.5875 -0.2482
  798DECAN   C4 7964   4.636   0.282  12.886  0.1516 -0.2265 -0.0733
  798DECAN   C5 7965   4.623   0.383  13.002  0.4225 -0.3110  0.0315
  798DECAN   C6 7966   4.676   0.332  13.137 -0.2531 -0.2063  0.3410
  798DECAN   C7 7967   4.600   0.398  13.253 -0.8962 -0.3033 -0.0239
  798DECAN   C8 7968   4.669   0.377  13.389 -0.2791  0.4973 -0.2046
  798DECAN   C9 7969   4.608   0.448  13.511  0.3913  0.2877  0.2613
  798DECAN  C10 7970   4.694   0.484  13.634  0.4137 -0.5828  0.5028
  799DECAN   C1 7971   8.921   7.113  10.261 -0.1128 -0.4652  0.0870
  799DECAN   C2 7972   9.000   7.233  10.316 -0.1417 -0.5001  0.2024
  799DECAN   C3 7973   9.066   7.197  10.451 -0.2924  0.2430  0.4821
  799DECAN   C4 7974   9.170   7.296  10.505 -0.3017  0.4303  0.1577
  799DECAN   C5 7975   9.263   7.221  10.602 -0.4408  0.1417  0.0701
  799DECAN   C6 7976   9.361   7.316  10.673 -0.1094  0.0001 -0.1939
  799DECAN   C7 7977   9.450   7.249  10.779 -0.0426  0.4096  0.0127
  799DECAN   C8 7978   9.514   7.358  10.866  0.4051 -0.0826  0.3057
  799DECAN   C9 7979   9.611   7.306  10.974  0.4511 -0.0211  0.2946
  799DECAN  C10 7980   9.544   7.216  11.080 -0.5504  0.2451 -0.1051
  800DECAN   C1 7981   2.781   4.381   8.634  0.4770  0.0080  0.3978
  800DECAN   C2 7982   2.805   4.456   8.502  0.1420  0.2257  0.4604
  800DECAN   C3 7983   2.877   4.592   8.511  0.2920  0.1792 -0.0240
  800DECAN   C4 7984   3.028   4.582   8.540  0.1982 -0.0737  0.3836
  800DECAN   C5 7985   3.125   4.507   8.447 -0.4905  0.2156 -0.5818
  800DECAN   C6 7986   3.272   4.505   8.492 -0.5750 -0.0568 -0.3134
  800DECAN   C7 7987   3.358   4.405   8.412 -0.2856 -0.1028  0.0551
  800DECAN   C8 7988   3.340   4.254   8.437 -0.3234 -0.0437  0.3947
  800DECAN   C9 7989   3.452   4.165   8.378 -0.3257  0.3044 -0.1444
  800DECAN  C10 7990   3.448   4.018   8.424 -0.0057  0.4016  0.1946
  801DECAN   C1 7991   4.715  10.767   9.422  0.0457 -0.2715 -0.1953
  801DECAN   C2 7992   4.632  10.748   9.550 -0.1242  0.6063 -0.1669
  801DECAN   C3 7993   4.558  10.869   9.610 -0.0621  0.1083  0.9340
  801DECAN   C4 7994   4.466  10.946   9.513  1.0345  0.2630 -0.0074
  801DECAN   C5 7995   4.389  11.054   9.590  0.0060 -0.3238 -0.1949
  801DECAN   C6 7996   4.467  11.186   9.574 -0.3264 -0.0290  0.5504
  801DECAN   C7 7997   4.601  11.190   9.649 -0.0111 -0.0174 -0.0099
  801DECAN   C8 7998   4.668   0.085   9.658  0.1011 -0.0552 -0.2613
  801DECAN   C9 7999   4.796   0.088   9.744  0.2837  0.4255 -0.5473
  801DECAN  C10 8000   4.888   0.209   9.715  0.4240  0.4688  0.0693
  802DECAN   C1 8001   2.975   0.572  11.924 -0.0524 -0.0045  0.4405
  802DECAN   C2 8002   3.100   0.482  11.920  0.2041  0.3649 -0.0455
  802DECAN   C3 8003   3.091   0.394  11.794 -0.1530 -0.0183  0.2458
  802DECAN   C4 8004   2.961   0.313  11.810 -0.2337  0.0993  0.1845
  802DECAN   C5 8005   2.929   0.267  11.666 -0.0739 -0.0579  0.1996
  802DECAN   C6 8006   2.786   0.211  11.656  0.0102 -0.2032 -0.1762
  802DECAN   C7 8007   2.769   0.137  11.522 -0.3893 -0.8801  0.2444
  802DECAN   C8 8008   2.621   0.126  11.480 -0.4314  0.4626  0.0081
  802DECAN   C9 8009   2.582   0.018  11.379 -0.0178  0.6182 -0.3199
  802DECAN  C10 8010   2.432   0.032  11.346 -0.1460  0.2469  0.1030
  803DECAN   C1 8011   9.409   9.018  10.915  0.0448  0.0396 -0.2891
  803DECAN   C2 8012   9.386   8.957  10.776  0.2717 -0.3390 -0.1626
  803DECAN   C3 8013   9.247   9.001  10.727 -0.0451 -0.7805  0.3341
  803DECAN   C4 8014   9.211   8.930  10.595 -0.2828 -0.8398  0.4289
  803DECAN   C5 8015   9.081   8.976  10.527  0.0489  0.1634  0.4575
  803DECAN   C6 8016   9.035   8.876  10.419  0.4819  0.0261  0.4001
  803DECAN   C7 8017   8.894   8.900  10.363  0.7657 -0.0873 -0.3773
  803DECAN   C8 8018   8.859   8.781  10.272  0.2455  0.0142 -0.3131
  803DECAN   C9 8019   8.947   8.775  10.146  0.4778 -0.3632 -0.1323
  803DECAN  C10 8020   8.909   8.889  10.050 -0.3280 -0.2621  0.2985
  804DECAN   C1 8021   1.666  10.377   9.385  0.4447 -0.4748  0.0614
  804DECAN   C2 8022   1.656  10.279   9.267  0.4196  0.3111 -0.6008
  804DECAN   C3 8023   1.698  10.143   9.327  0.1426  0.4093 -0.1795
  804DECAN   C4 8024   1.591  10.095   9.426  0.4080 -0.1616 -0.1664
  804DECAN   C5 8025   1.610   9.952   9.479  0.0435  0.0830  0.6539
  804DECAN   C6 8026   1.506   9.904   9.581 -1.0710  0.0054 -0.4930
  804DECAN   C7 8027   1.509   9.750   9.590  0.5892  0.0430 -0.1462
  804DECAN   C8 8028   1.410   9.683   9.688  0.1457  0.2351 -0.4608
  804DECAN   C9 8029   1.430   9.531   9.680  0.0830  0.1988  0.0691
  804DECAN  C10 8030   1.568   9.494   9.738  0.0900 -0.5510 -0.4165
  805DECAN   C1 8031   2.272   2.685  11.071 -0.2791  0.3971  0.1537
  805DECAN   C2 8032   2.320   2.740  11.206  0.2510 -0.0648  0.1573
  805DECAN   C3 8033   2.235   2.856  11.261 -0.0345  0.0260 -0.4671
  805DECAN   C4 8034   2.305   2.944  11.367 -0.3000 -0.1837 -0.1119
  805DECAN   C5 8035   2.208   3.028  11.451  0.3455  0.5140 -0.0599
  805DECAN   C6 8036   2.278   3.124  11.550  0.0701  0.0827  0.5583
  805DECAN   C7 8037   2.188   3.215  11.636  0.1920  0.8616 -0.1241
  805DECAN   C8 8038   2.265   3.278  11.753  0.1425  0.5153  0.0973
  805DECAN   C9 8039   2.395   3.359  11.733  0.6328 -0.2502  0.1383
  805DECAN  C10 8040   2.474   3.384  11.863  0.2371 -0.1985  0.3691
  806DECAN   C1 8041   6.384   8.031  10.894  0.2182 -0.7320  0.3153
  806DECAN   C2 8042   6.402   8.105  11.028 -0.3058  0.0164 -0.0219
  806DECAN   C3 8043   6.463   8.245  11.008  0.0542 -0.0481  0.6189
  806DECAN   C4 8044   6.592   8.242  10.923 -0.5307 -0.1684 -0.2693
  806DECAN   C5 8045   6.568   8.177  10.785  0.1232 -0.3332 -0.3082
  806DECAN   C6 8046   6.700   8.188  10.708  0.0559  0.3000 -0.3379
  806DECAN   C7 8047   6.713   8.122  10.570 -0.3318 -0.2754 -0.1006
  806DECAN   C8 8048   6.686   7.970  10.562  0.2382 -0.3783 -0.1627
  806DECAN   C9 8049   6.535   7.942  10.573  0.0918  0.2493 -0.5335
  806DECAN  C10 8050   6.499   7.793  10.583  0.4189  0.1805 -0.3757
  807DECAN   C1 8051   4.422   1.528   5.461  0.0393 -0.0942 -0.4412
  807DECAN   C2 8052   4.531   1.626   5.506 -0.0086 -0.1918 -0.1090
  807DECAN   C3 8053   4.481   1.724   5.614  0.2397  0.0304 -0.1929
  807DECAN   C4 8054   4.591   1.803   5.688 -0.1212  0.0016  0.3841
  807DECAN   C5 8055   4.552   1.914   5.786  0.1526  0.3402  0.1096
  807DECAN   C6 8056   4.403   1.928   5.824  0.0269  0.3125 -0.3623
  807DECAN   C7 8057   4.388   2.031   5.938 -0.1863 -0.0047 -0.1025
  807DECAN   C8 8058   4.411   1.978   6.081 -0.0028 -0.0343 -0.1434
  807DECAN   C9 8059   4.317   1.862   6.118 -0.6552  0.6790  0.4633
  807DECAN  C10 8060   4.316   1.805   6.262  0.2213 -0.4305  0.0443
  808DECAN   C1 8061   8.374   8.388   6.573 -0.1223  0.1303  0.5208
  808DECAN   C2 8062   8.461   8.278   6.635  0.5910  0.1330 -0.4566
  808DECAN   C3 8063   8.471   8.286   6.789  0.1181  0.1347 -0.4264
  808DECAN   C4 8064   8.586   8.202   6.846  0.1709  0.4073 -0.1263
  808DECAN   C5 8065   8.598   8.194   6.999  0.0134 -0.0565 -0.1380
  808DECAN   C6 8066   8.724   8.116   7.042  0.0518 -0.0559 -0.2529
  808DECAN   C7 8067   8.860   8.183   7.010  0.1020  0.1619  0.4052
  808DECAN   C8 8068   8.877   8.225   6.863  0.4121 -0.7724  0.1698
  808DECAN   C9 8069   8.977   8.336   6.827 -0.1682 -0.3166 -0.0525
  808DECAN  C10 8070   8.994   8.346   6.675  0.2814 -0.3948 -0.0073
  809DECAN   C1 8071   7.262   0.596  12.650  0.5743  0.9600 -0.4683
  809DECAN   C2 8072   7.182   0.672  12.758  0.0503  0.0890 -0.2313
  809DECAN   C3 8073   7.064   0.589  12.810 -0.4332  0.9117  0.0153
  809DECAN   C4 8074   6.953   0.562  12.707 -0.2765  0.1559  0.0356
  809DECAN   C5 8075   6.873   0.693  12.695 -0.1956  0.1982 -0.0406
  809DECAN   C6 8076   6.825   0.706  12.550 -0.4804  0.2770  0.0605
  809DECAN   C7 8077   6.925   0.660  12.442 -0.2430  0.3265  0.2607
  809DECAN   C8 8078   6.874   0.655  12.297  0.3882 -0.4661  0.0576
  809DECAN   C9 8079   6.863   0.799  12.244 -0.1580 -0.3613  0.4407
  809DECAN  C10 8080   6.889   0.816  12.093  0.4970  0.7523  0.6679
  810DECAN   C1 8081   6.340   3.560   5.513  0.2362 -0.1390 -0.2393
  810DECAN   C2 8082   6.190   3.584   5.493  0.2225  0.3335  0.4054
  810DECAN   C3 8083   6.148   3.732   5.494  0.4425  0.4064 -0.4422
  810DECAN   C4 8084   6.015   3.748   5.418  0.2546  0.4340 -0.1116
  810DECAN   C5 8085   5.902   3.650   5.456  0.6402  0.1040  0.1958
  810DECAN   C6 8086   5.957   3.510   5.424  0.1091  0.0113 -0.3410
  810DECAN   C7 8087   5.842   3.416   5.384  0.0407 -0.1407  0.2068
  810DECAN   C8 8088   5.898   3.283   5.330  0.2647  0.1671 -0.3234
  810DECAN   C9 8089   5.783   3.183   5.308  0.2547  0.0687  0.1621
  810DECAN  C10 8090   5.735   3.098   5.427  0.4201 -0.0135  0.1710
  811DECAN   C1 8091   9.838   4.444   5.608 -0.6827 -0.5178 -0.4617
  811DECAN   C2 8092   9.732   4.525   5.686  0.3376  0.0873  0.3120
  811DECAN   C3 8093   9.589   4.496   5.638  0.3470 -0.3496  0.5424
  811DECAN   C4 8094   9.485   4.586   5.708 -0.1968 -0.6531  0.1333
  811DECAN   C5 8095   9.361   4.608   5.620 -0.2074 -0.4634  0.1941
  811DECAN   C6 8096   9.259   4.690   5.700  0.1243  0.1535 -0.0090
  811DECAN   C7 8097   9.118   4.719   5.643 -0.0868 -0.0510  0.4042
  811DECAN   C8 8098   9.023   4.785   5.745 -0.4698 -0.3839  0.2626
  811DECAN   C9 8099   8.877   4.792   5.697 -0.2003  0.5166 -0.4499
  811DECAN  C10 8100   8.782   4.838   5.809 -0.0658 -0.0065 -0.1172
  812DECAN   C1 8101   2.384   4.526   4.294  0.5260 -0.0301  0.3490
  812DECAN   C2 8102   2.490   4.485   4.191  0.1420 -0.1741  0.0106
  812DECAN   C3 8103   2.620   4.562   4.218 -0.1181  0.3456 -0.1963
  812DECAN   C4 8104   2.726   4.542   4.108 -0.0544  0.1356 -0.0973
  812DECAN   C5 8105   2.860   4.610   4.142 -0.0795  0.3793 -0.4815
  812DECAN   C6 8106   2.966   4.591   4.032 -0.2063  0.2181 -0.5770
  812DECAN   C7 8107   3.099   4.668   4.041  0.1760 -0.4800 -0.1481
  812DECAN   C8 8108   3.152   4.689   3.898 -0.4349  0.3607 -0.2575
  812DECAN   C9 8109   3.282   4.769   3.887  0.0140 -0.3674 -0.3023
  812DECAN  C10 8110   3.281   4.887   3.986  0.3038 -0.5172 -0.1173
  813DECAN   C1 8111   8.798   7.862  15.156 -0.0285  0.0085 -0.5356
  813DECAN   C2 8112   8.686   7.937  15.080 -0.3754  0.1514  0.1109
  813DECAN   C3 8113   8.716   8.084  15.116 -0.9817  0.2498  0.2246
  813DECAN   C4 8114   8.633   8.186  15.037 -0.7085 -0.0190 -0.4174
  813DECAN   C5 8115   8.688   8.325  15.075 -0.2970 -0.2676 -0.0901
  813DECAN   C6 8116   8.820   8.363  15.007 -0.0171 -0.6931  0.2079
  813DECAN   C7 8117   8.937   8.271  15.045  0.4128 -0.4579 -0.5265
  813DECAN   C8 8118   9.082   8.320  15.024  0.3811  0.4332  1.1716
  813DECAN   C9 8119   9.197   8.233  15.077 -0.0943 -1.0322 -0.1283
  813DECAN  C10 8120   9.323   8.313  15.039 -0.9745  0.2570 -0.3914
  814DECAN   C1 8121   9.906   5.732  10.313  0.1297  0.1467 -0.2117
  814DECAN   C2 8122   9.845   5.621  10.401  0.3540  0.1174 -0.0895
  814DECAN   C3 8123   9.843   5.485  10.329 -0.1071  0.3342 -0.4988
  814DECAN   C4 8124   9.980   5.454  10.266  0.2398 -0.0462  0.4199
  814DECAN   C5 8125  10.003   5.305  10.231  0.2524  0.0025  0.2224
  814DECAN   C6 8126   9.917   5.276  10.106 -0.2074  0.4631  0.4231
  814DECAN   C7 8127   9.958   5.137  10.053 -0.3444  0.2123  0.9700
  814DECAN   C8 8128  10.111   5.128  10.058 -0.3147 -0.1373 -0.1817
  814DECAN   C9 8129  10.166   4.992  10.011  0.3626 -0.1517  0.6141
  814DECAN  C10 8130  10.319   5.002  10.021  0.4096 -0.0624 -0.1347
  815DECAN   C1 8131   3.782   6.236  10.766  0.2695 -0.6552  0.5565
  815DECAN   C2 8132   3.839   6.228  10.623 -0.2459  0.1312  0.3001
  815DECAN   C3 8133   3.735   6.286  10.525  0.0048 -0.1312 -0.1253
  815DECAN   C4 8134   3.766   6.268  10.375  0.0072  0.8116 -0.2456
  815DECAN   C5 8135   3.640   6.256  10.287 -0.0933 -0.9913  0.1020
  815DECAN   C6 8136   3.673   6.233  10.139  0.0261  0.5381 -0.1255
  815DECAN   C7 8137   3.553   6.193  10.050 -0.3806  0.2174  0.5617
  815DECAN   C8 8138   3.599   6.155   9.908  0.9125  0.2094  0.9708
  815DECAN   C9 8139   3.687   6.268   9.852  0.1046  0.2869 -0.1666
  815DECAN  C10 8140   3.810   6.296   9.941  0.3395  0.2118 -0.4636
  816DECAN   C1 8141   2.904   3.622   6.332  0.3647  0.1203 -0.1616
  816DECAN   C2 8142   3.004   3.577   6.224  0.2176  0.2641 -0.3588
  816DECAN   C3 8143   3.134   3.658   6.227  0.2620  0.1758  0.2022
  816DECAN   C4 8144   3.169   3.664   6.377 -0.3355 -0.1767  0.3593
  816DECAN   C5 8145   3.307   3.727   6.406 -0.3339  0.0186 -0.0696
  816DECAN   C6 8146   3.321   3.777   6.551  0.1726  0.2759 -0.2046
  816DECAN   C7 8147   3.460   3.808   6.609  0.2303 -0.3263 -0.0121
  816DECAN   C8 8148   3.453   3.862   6.753 -0.3984 -0.3453 -0.0343
  816DECAN   C9 8149   3.575   3.938   6.806 -0.5034 -0.5456  0.5001
  816DECAN  C10 8150   3.539   4.004   6.940 -0.0636  0.1820  0.2682
  817DECAN   C1 8151   2.377   5.584  14.419  0.3391 -0.6553 -0.5160
  817DECAN   C2 8152   2.355   5.435  14.446 -0.2800 -0.4237  0.2937
  817DECAN   C3 8153   2.215   5.374  14.422 -0.4554 -0.0912  0.4746
  817DECAN   C4 8154   2.199   5.222  14.438 -0.0403 -0.2262 -0.3709
  817DECAN   C5 8155   2.288   5.141  14.341  0.3792  0.3807 -0.4999
  817DECAN   C6 8156   2.438   5.164  14.367  0.3297  0.2742 -0.1114
  817DECAN   C7 8157   2.530   5.105  14.259 -0.0477  0.0401 -0.3061
  817DECAN   C8 8158   2.678   5.105  14.299 -0.1175  0.2231 -0.0456
  817DECAN   C9 8159   2.773   5.017  14.215 -0.4824 -0.3597  0.1492
  817DECAN  C10 8160   2.919   5.019  14.263 -0.2989  0.2296 -0.4166
  818DECAN   C1 8161   8.547   7.379   6.264  0.2623 -0.6328  0.0326
  818DECAN   C2 8162   8.693   7.423   6.245  0.0977  0.1411  0.5058
  818DECAN   C3 8163   8.727   7.506   6.119 -0.1916 -0.1982  0.2001
  818DECAN   C4 8164   8.717   7.434   5.984 -0.0729  0.3182 -0.0828
  818DECAN   C5 8165   8.750   7.515   5.857  0.4227  0.4476  0.1263
  818DECAN   C6 8166   8.768   7.423   5.734  0.2178  0.7313 -0.1179
  818DECAN   C7 8167   8.862   7.303   5.757 -0.0326  0.6229  0.3605
  818DECAN   C8 8168   8.872   7.213   5.633  0.2077  0.1346  0.7280
  818DECAN   C9 8169   8.963   7.089   5.632 -0.2614 -0.2304 -0.7446
  818DECAN  C10 8170   9.113   7.122   5.615 -0.1518 -0.3454 -0.0296
  819DECAN   C1 8171   6.680   0.551  11.564 -0.2443  0.0895  0.0306
  819DECAN   C2 8172   6.709   0.492  11.703 -0.2758 -0.2868 -0.1208
  819DECAN   C3 8173   6.842   0.538  11.767 -0.1304 -0.3528 -0.3747
  819DECAN   C4 8174   6.871   0.454  11.893 -0.0310 -0.0664 -0.2059
  819DECAN   C5 8175   7.016   0.467  11.942 -0.1310  0.1017  0.0480
  819DECAN   C6 8176   7.034   0.425  12.089 -0.6941 -0.3472 -0.0080
  819DECAN   C7 8177   7.178   0.415  12.144 -0.5948 -0.1360 -0.2279
  819DECAN   C8 8178   7.229   0.559  12.163  0.1050 -0.4165  0.0363
  819DECAN   C9 8179   7.271   0.632  12.034  0.3569 -0.4786  0.0833
  819DECAN  C10 8180   7.336   0.770  12.054 -0.2635 -0.1069 -0.4276
  820DECAN   C1 8181   2.728   3.036   4.268  0.9361 -0.0935 -0.2999
  820DECAN   C2 8182   2.724   3.190   4.264  0.6482 -0.0903  0.1081
  820DECAN   C3 8183   2.673   3.251   4.396  0.2717  0.3507 -0.2381
  820DECAN   C4 8184   2.701   3.403   4.391 -0.2159  0.4434 -0.2196
  820DECAN   C5 8185   2.673   3.483   4.520  0.5109  0.3630 -0.0073
  820DECAN   C6 8186   2.722   3.628   4.511  0.4676  0.3647 -0.2265
  820DECAN   C7 8187   2.654   3.710   4.399 -0.1110  0.0444 -0.1111
  820DECAN   C8 8188   2.727   3.840   4.361  0.0677 -0.2858 -0.9039
  820DECAN   C9 8189   2.659   3.921   4.250 -0.6710  0.2168 -0.0953
  820DECAN  C10 8190   2.521   3.984   4.277 -0.2748  0.7540  0.7167
  821DECAN   C1 8191   4.610   7.750   9.631  0.5833 -0.0346  0.0037
  821DECAN   C2 8192   4.615   7.899   9.670  0.2199  0.0198 -0.1587
  821DECAN   C3 8193   4.736   7.951   9.749  0.3379  0.7392 -0.7932
  821DECAN   C4 8194   4.737   8.098   9.796  0.5276  0.3302  0.5159
  821DECAN   C5 8195   4.876   8.161   9.808  0.8457 -0.3471  0.4316
  821DECAN   C6 8196   4.881   8.309   9.850 -0.2311 -0.0219 -0.5527
  821DECAN   C7 8197   5.028   8.338   9.887 -0.4112  0.3557 -0.1189
  821DECAN   C8 8198   5.055   8.489   9.896 -0.0315  0.2472  0.6592
  821DECAN   C9 8199   4.949   8.563   9.812 -0.3329 -0.5446  0.3299
  821DECAN  C10 8200   4.939   8.716   9.829  0.2746 -0.5538  0.8208
  822DECAN   C1 8201   2.214   2.876   4.282  0.5103  0.3093  0.3964
  822DECAN   C2 8202   2.162   2.890   4.426  0.4449 -0.0649  0.4084
  822DECAN   C3 8203   2.265   2.878   4.540  0.8598 -0.2021  0.0184
  822DECAN   C4 8204   2.366   2.995   4.535  0.4179  0.1796 -0.0245
  822DECAN   C5 8205   2.306   3.125   4.592  0.1302  0.1212 -0.1902
  822DECAN   C6 8206   2.252   3.104   4.734 -0.1404  0.3484 -0.2594
  822DECAN   C7 8207   2.210   3.236   4.801 -0.4530  0.4910 -0.7338
  822DECAN   C8 8208   2.111   3.322   4.719 -0.4151  0.5057 -0.7645
  822DECAN   C9 8209   2.187   3.428   4.637  0.5720  0.5551  0.1858
  822DECAN  C10 8210   2.090   3.511   4.551 -0.2923 -0.3706  0.2494
  823DECAN   C1 8211   3.634   1.389  12.995 -0.1947 -0.8826 -0.3501
  823DECAN   C2 8212   3.570   1.373  13.134  0.7134 -0.3479  0.1353
  823DECAN   C3 8213   3.544   1.225  13.168  0.7105 -0.4932 -0.4969
  823DECAN   C4 8214   3.486   1.192  13.307  0.4551  0.3036 -0.4099
  823DECAN   C5 8215   3.488   1.043  13.345  0.2787  0.3782 -0.1077
  823DECAN   C6 8216   3.441   1.014  13.489 -0.3404 -0.0996 -0.4030
  823DECAN   C7 8217   3.490   0.870  13.512  0.4054  0.2177  0.0143
  823DECAN   C8 8218   3.456   0.829  13.657 -0.5473  0.0240 -0.2542
  823DECAN   C9 8219   3.477   0.681  13.694 -0.2513  0.0439 -0.3407
  823DECAN  C10 8220   3.409   0.567  13.615  0.3955  0.0100 -0.8653
  824DECAN   C1 8221   4.926   6.296  12.082  0.0051 -0.8536  0.0646
  824DECAN   C2 8222   5.011   6.182  12.023  0.8001 -0.2809  0.0952
  824DECAN   C3 8223   4.962   6.052  12.090 -0.0638 -0.0881 -0.1555
  824DECAN   C4 8224   4.950   6.066  12.243  0.0906  0.0504 -0.1573
  824DECAN   C5 8225   4.887   5.945  12.313  0.6423  0.0635  0.3695
  824DECAN   C6 8226   4.739   5.950  12.354  0.6114 -0.1044  0.2806
  824DECAN   C7 8227   4.673   5.811  12.366 -0.3170  0.2767 -0.2842
  824DECAN   C8 8228   4.549   5.797  12.455 -0.1665 -0.1923 -0.1472
  824DECAN   C9 8229   4.543   5.889  12.578 -0.0963 -0.1141 -0.2031
  824DECAN  C10 8230   4.568   6.034  12.534 -0.9918  0.0580 -0.1533
  825DECAN   C1 8231   7.192   3.571   8.952 -0.2028 -0.3792  0.4660
  825DECAN   C2 8232   7.140   3.690   9.036  0.0683  0.5876 -0.7009
  825DECAN   C3 8233   6.988   3.709   9.015 -0.0310  0.0470 -0.4999
  825DECAN   C4 8234   6.928   3.569   8.991 -0.3659  0.1603 -0.3204
  825DECAN   C5 8235   6.938   3.510   8.849 -0.2132 -0.0943 -0.2043
  825DECAN   C6 8236   6.861   3.376   8.853  0.0747 -0.2559 -0.0176
  825DECAN   C7 8237   6.912   3.268   8.950 -0.4832 -0.2303  0.3090
  825DECAN   C8 8238   6.823   3.143   8.962 -0.2362 -0.4478 -0.1258
  825DECAN   C9 8239   6.858   3.043   9.074 -0.4367  0.1038  0.4345
  825DECAN  C10 8240   6.758   2.926   9.066  0.5477 -0.7077 -0.3152
  826DECAN   C1 8241   9.041   9.445   5.739  0.3767 -0.6025  0.3447
  826DECAN   C2 8242   9.036   9.570   5.829 -0.6686  0.0377 -0.5761
  826DECAN   C3 8243   8.893   9.605   5.874 -0.5213 -0.2793  0.1510
  826DECAN   C4 8244   8.897   9.750   5.927 -0.8783 -0.0296 -0.4974
  826DECAN   C5 8245   8.961   9.855   5.834 -0.4079 -0.3225 -0.5124
  826DECAN   C6 8246   9.092   9.807   5.770  0.2410  0.1833  0.4233
  826DECAN   C7 8247   9.163   9.912   5.683 -0.2896 -0.0126 -0.2464
  826DECAN   C8 8248   9.269   9.869   5.580  0.3254  0.0764  0.3478
  826DECAN   C9 8249   9.328   9.998   5.519 -0.0002  0.1092  0.1014
  826DECAN  C10 8250   9.411  10.087   5.614 -0.6791  0.4850  0.3459
  827DECAN   C1 8251  10.039   2.549  10.564  0.4664  0.4346 -0.0259
  827DECAN   C2 8252   9.960   2.659  10.492  0.6000  0.1571 -0.5974
  827DECAN   C3 8253   9.810   2.626  10.481  0.6243 -0.0517 -0.2999
  827DECAN   C4 8254   9.717   2.703  10.385  0.5969  0.4652  0.1417
  827DECAN   C5 8255   9.567   2.674  10.399  0.5980  0.2576 -0.2724
  827DECAN   C6 8256   9.519   2.533  10.361  0.1698  0.2246  0.3772
  827DECAN   C7 8257   9.373   2.491  10.388  0.1851 -0.0882 -0.0197
  827DECAN   C8 8258   9.319   2.540  10.523 -0.4977 -0.6348 -0.0916
  827DECAN   C9 8259   9.189   2.470  10.568 -0.6017 -0.4256 -0.0686
  827DECAN  C10 8260   9.058   2.531  10.514 -0.6380 -0.2659  0.1961
  828DECAN   C1 8261   5.036   9.631   4.686 -0.4547  0.0960 -0.6388
  828DECAN   C2 8262   5.038   9.594   4.537 -0.2235 -0.0875 -0.5919
  828DECAN   C3 8263   4.941   9.670   4.443  0.5555  0.3049 -1.0868
  828DECAN   C4 8264   4.923   9.818   4.483  0.4987 -0.0628  0.3243
  828DECAN   C5 8265   4.815   9.843   4.589  0.3270 -0.0176  0.1389
  828DECAN   C6 8266   4.805   9.995   4.613  0.2733 -0.0736  0.4851
  828DECAN   C7 8267   4.691  10.048   4.701  0.4035  0.5820  0.2674
  828DECAN   C8 8268   4.646  10.195   4.688 -0.2284  0.3088 -0.6890
  828DECAN   C9 8269   4.517  10.233   4.764 -0.1286  0.4487 -0.5898
  828DECAN  C10 8270   4.492  10.384   4.778  0.6409  0.5019  0.2598
  829DECAN   C1 8271   6.394  10.549  11.230 -0.9132  0.0913  0.2923
  829DECAN   C2 8272   6.455  10.684  11.187 -0.2018 -0.1247  0.6111
  829DECAN   C3 8273   6.572  10.721  11.280 -0.0954 -0.3352  0.5635
  829DECAN   C4 8274   6.661  10.841  11.244 -0.2602 -0.3295  0.1699
  829DECAN   C5 8275   6.771  10.891  11.339  0.2656 -0.3347 -0.4294
  829DECAN   C6 8276   6.849  11.015  11.292  0.3173  0.0455  0.6230
  829DECAN   C7 8277   6.778  11.150  11.312  0.1933  0.0129  0.4080
  829DECAN   C8 8278   6.731  11.187  11.454 -0.3347  0.1265  0.2070
  829DECAN   C9 8279   6.640   0.067  11.454 -0.7142 -0.1502 -0.2524
  829DECAN  C10 8280   6.621   0.161  11.574 -0.1798  0.1164 -0.3756
  830DECAN   C1 8281  10.026   4.650  14.756  0.1887 -0.0415  0.7839
  830DECAN   C2 8282  10.017   4.796  14.708 -0.0204 -0.1070  0.6209
  830DECAN   C3 8283   9.882   4.846  14.653  0.2160 -0.0264  0.1078
  830DECAN   C4 8284   9.766   4.844  14.753 -0.0918 -0.1869 -0.2488
  830DECAN   C5 8285   9.642   4.923  14.708  0.2178  0.0509 -0.6871
  830DECAN   C6 8286   9.543   4.943  14.824  0.6753  0.0836 -0.3016
  830DECAN   C7 8287   9.428   5.038  14.783 -0.0522 -0.5645  0.2118
  830DECAN   C8 8288   9.324   5.056  14.894  0.2127  0.2428  0.3350
  830DECAN   C9 8289   9.379   5.148  15.005  0.1071  0.4457  0.2203
  830DECAN  C10 8290   9.288   5.153  15.129 -0.2655 -0.1278 -0.0234
  831DECAN   C1 8291   9.102   5.047  11.222 -0.0970  0.3701 -0.1768
  831DECAN   C2 8292   9.002   5.036  11.338  0.2379  0.0779  0.0853
  831DECAN   C3 8293   8.885   5.135  11.330  0.2258  0.0213 -0.4452
  831DECAN   C4 8294   8.749   5.116  11.399  0.6841 -0.0865  0.4316
  831DECAN   C5 8295   8.659   4.998  11.358 -0.3325  0.8206  0.0179
  831DECAN   C6 8296   8.608   4.998  11.213 -0.2380 -0.2217 -0.0258
  831DECAN   C7 8297   8.573   4.859  11.157 -0.1831 -0.1663 -0.2006
  831DECAN   C8 8298   8.447   4.819  11.236 -0.3042  0.2153 -0.1989
  831DECAN   C9 8299   8.485   4.777  11.379 -0.8617  0.0068 -0.1082
  831DECAN  C10 8300   8.364   4.759  11.472 -0.0517 -0.9004  0.7962
  832DECAN   C1 8301   2.899   8.440   6.241  0.6741 -0.8676  0.5095
  832DECAN   C2 8302   2.995   8.410   6.124 -0.2736 -0.9057 -0.2674
  832DECAN   C3 8303   2.944   8.472   5.992 -0.1704  0.3689  0.2718
  832DECAN   C4 8304   3.038   8.433   5.877 -0.2666  0.2082  0.2479
  832DECAN   C5 8305   2.988   8.448   5.732 -0.0605  0.1760  0.1724
  832DECAN   C6 8306   2.981   8.594   5.683  0.5431  0.2052  0.1694
  832DECAN   C7 8307   2.921   8.614   5.543 -0.6952 -0.5784  0.5738
  832DECAN   C8 8308   2.771   8.586   5.527 -0.8189  0.2412  0.2689
  832DECAN   C9 8309   2.712   8.556   5.388 -0.2679 -0.7593  0.2404
  832DECAN  C10 8310   2.561   8.526   5.383 -0.5129  0.5354 -0.8022
  833DECAN   C1 8311   5.561   3.954   4.990 -0.2960 -0.3607 -0.2563
  833DECAN   C2 8312   5.467   3.850   4.925  0.0784 -0.8627  0.0009
  833DECAN   C3 8313   5.322   3.854   4.977 -0.1432 -0.5453 -0.6353
  833DECAN   C4 8314   5.258   3.724   4.926 -0.4827 -0.5318 -0.2401
  833DECAN   C5 8315   5.123   3.691   4.994 -0.3035 -0.8108 -0.0154
  833DECAN   C6 8316   5.121   3.653   5.143 -0.2042 -0.6825  0.0195
  833DECAN   C7 8317   5.193   3.526   5.194  0.1565 -0.3379  0.3713
  833DECAN   C8 8318   5.181   3.503   5.346  0.3271 -0.6029  0.3443
  833DECAN   C9 8319   5.180   3.353   5.383  0.2202 -0.7133 -0.0943
  833DECAN  C10 8320   5.312   3.280   5.353 -0.0538 -0.9256 -0.7855
  834DECAN   C1 8321   8.793   2.555  14.843  0.7276  0.3108 -0.0940
  834DECAN   C2 8322   8.852   2.414  14.822 -0.4730 -0.2726  0.3273
  834DECAN   C3 8323   9.003   2.416  14.855 -0.4201 -0.7102  0.1163
  834DECAN   C4 8324   9.094   2.492  14.758 -0.6701 -0.3158  0.1903
  834DECAN   C5 8325   9.100   2.456  14.608  0.4231 -0.6467  0.3032
  834DECAN   C6 8326   8.974   2.471  14.521  0.7722  0.4606 -0.0386
  834DECAN   C7 8327   8.980   2.436  14.371  0.1326 -0.1148  0.0617
  834DECAN   C8 8328   9.043   2.543  14.280  0.1260 -0.1341  0.0351
  834DECAN   C9 8329   9.192   2.574  14.300  0.1050 -0.0792  0.1066
  834DECAN  C10 8330   9.243   2.641  14.171 -0.2501 -0.6434 -0.3318
  835DECAN   C1 8331   8.277   1.505  10.764 -0.2915 -0.8306 -0.2924
  835DECAN   C2 8332   8.391   1.406  10.735  0.4131 -0.1942  0.2812
  835DECAN   C3 8333   8.498   1.473  10.647 -0.0581  0.2070  0.0144
  835DECAN   C4 8334   8.624   1.386  10.630 -0.1147  0.0851  0.2273
  835DECAN   C5 8335   8.599   1.277  10.525 -0.0260 -0.1124  0.4111
  835DECAN   C6 8336   8.473   1.193  10.555 -0.3947  0.1533 -0.3740
  835DECAN   C7 8337   8.458   1.091  10.440 -0.2190 -0.1941 -0.0923
  835DECAN   C8 8338   8.438   1.147  10.298  0.3765  0.7584  0.1880
  835DECAN   C9 8339   8.305   1.210  10.252  0.2948  0.2171 -0.3329
  835DECAN  C10 8340   8.243   1.336  10.315  0.1590  0.0629 -0.1608
  836DECAN   C1 8341   5.323  10.934  14.667  0.8881 -0.5608 -0.3694
  836DECAN   C2 8342   5.282  10.903  14.522 -0.2240  0.5699 -0.3179
  836DECAN   C3 8343   5.130  10.894  14.498 -0.2880  0.4526  0.1217
  836DECAN   C4 8344   5.083  10.879  14.352 -0.1851  0.9760  0.0298
  836DECAN   C5 8345   4.930  10.870  14.347 -0.1309  0.2568 -0.4694
  836DECAN   C6 8346   4.859  10.734  14.367  0.1584  0.1688 -0.0394
  836DECAN   C7 8347   4.885  10.631  14.256  0.0161 -0.2337  0.2992
  836DECAN   C8 8348   4.830  10.672  14.118 -0.0629 -0.0434  0.3883
  836DECAN   C9 8349   4.849  10.573  14.002  0.0987 -0.1516  0.5085
  836DECAN  C10 8350   4.811  10.627  13.863 -0.2900  0.1131  0.7134
  837DECAN   C1 8351   7.784   2.333  15.171  0.4491 -0.7210  0.4380
  837DECAN   C2 8352   7.746   2.202  15.099  0.4184 -0.2117 -0.4917
  837DECAN   C3 8353   7.854   2.138  15.009  0.3549 -0.4590 -0.3935
  837DECAN   C4 8354   7.920   2.239  14.913  0.2905  0.2173  0.2628
  837DECAN   C5 8355   8.000   2.161  14.807 -0.5119  0.1856 -0.3310
  837DECAN   C6 8356   7.925   2.041  14.746  0.0813  0.0283 -0.7642
  837DECAN   C7 8357   8.025   1.939  14.691 -0.0366 -0.3952 -0.2064
  837DECAN   C8 8358   8.100   1.973  14.560  0.3836  0.2172  0.1937
  837DECAN   C9 8359   8.177   2.105  14.578  0.1166  0.3263  0.5490
  837DECAN  C10 8360   8.291   2.109  14.475 -0.3567  0.6281  0.0282
  838DECAN   C1 8361   9.891   4.179   6.505  0.2525  0.5753  0.0181
  838DECAN   C2 8362   9.837   4.283   6.405  0.0543  0.2371 -0.2302
  838DECAN   C3 8363   9.733   4.249   6.298 -0.3002  0.3716  0.0673
  838DECAN   C4 8364   9.591   4.224   6.352 -0.2855  0.5799  0.2018
  838DECAN   C5 8365   9.572   4.093   6.429 -0.1708  0.3033 -0.2402
  838DECAN   C6 8366   9.435   4.087   6.499  0.1209 -0.0529  0.3111
  838DECAN   C7 8367   9.423   4.203   6.599  0.0795  0.0196  0.2215
  838DECAN   C8 8368   9.399   4.342   6.536 -0.4283 -0.3690 -0.4582
  838DECAN   C9 8369   9.374   4.452   6.641  0.3320 -0.3075 -0.3347
  838DECAN  C10 8370   9.471   4.459   6.760 -0.2805 -0.6516  0.1887
  839DECAN   C1 8371   6.802   5.509  10.496 -0.1353 -0.3005  0.1380
  839DECAN   C2 8372   6.942   5.572  10.486 -0.0271 -0.6227 -0.3881
  839DECAN   C3 8373   6.966   5.641  10.350  0.0261 -0.3793 -0.2549
  839DECAN   C4 8374   6.899   5.780  10.346  0.0315 -0.3709 -0.0446
  839DECAN   C5 8375   6.919   5.846  10.209  0.2001 -0.0023  0.1542
  839DECAN   C6 8376   6.847   5.981  10.196  0.0370 -0.1313 -0.3141
  839DECAN   C7 8377   6.694   5.998  10.208  0.0554 -0.1001 -0.1197
  839DECAN   C8 8378   6.667   6.149  10.227  0.3333 -0.0438 -0.1538
  839DECAN   C9 8379   6.570   6.187  10.341  0.3873  0.4747 -0.2806
  839DECAN  C10 8380   6.529   6.335  10.334 -0.2445  0.2937 -0.4718
  840DECAN   C1 8381   1.713   2.568   7.316 -0.0834  0.2753  0.1052
  840DECAN   C2 8382   1.864   2.566   7.346 -0.1141 -0.2241  0.2416
  840DECAN   C3 8383   1.908   2.700   7.407  0.0646 -0.1776  0.0114
  840DECAN   C4 8384   2.061   2.707   7.430  0.1157 -0.1839 -0.3241
  840DECAN   C5 8385   2.110   2.837   7.496 -0.3718  0.1169 -0.5401
  840DECAN   C6 8386   2.054   2.831   7.640  0.3810  0.0245 -0.2428
  840DECAN   C7 8387   2.122   2.925   7.741 -0.1590  0.5326 -0.3444
  840DECAN   C8 8388   2.115   3.076   7.714 -0.2488  0.5695 -0.1169
  840DECAN   C9 8389   2.151   3.165   7.835  0.2576  0.2006  0.0099
  840DECAN  C10 8390   2.105   3.311   7.815  0.0243  0.0874 -0.2926
  841DECAN   C1 8391   5.315   3.221   7.406 -1.0979  0.0329  0.2038
  841DECAN   C2 8392   5.280   3.078   7.361  0.0817 -0.2428  0.1259
  841DECAN   C3 8393   5.253   3.073   7.210  0.2943  0.5071  0.0591
  841DECAN   C4 8394   5.192   2.936   7.173  0.0386  0.5357  0.3762
  841DECAN   C5 8395   5.141   2.920   7.029  0.0487 -1.1508  0.5370
  841DECAN   C6 8396   5.065   2.793   6.985 -1.1927 -0.4232  0.5304
  841DECAN   C7 8397   4.979   2.800   6.858 -0.6833 -0.4256  0.1844
  841DECAN   C8 8398   4.884   2.679   6.857 -0.3686 -0.6799  0.5327
  841DECAN   C9 8399   4.797   2.660   6.731  0.0426 -0.3289  0.1939
  841DECAN  C10 8400   4.694   2.549   6.756 -0.4291  0.1684  0.4519
  842DECAN   C1 8401   5.503   2.039   7.716 -0.0034 -0.3042 -0.5116
  842DECAN   C2 8402   5.358   1.997   7.745 -0.0018  0.1576  0.1892
  842DECAN   C3 8403   5.307   1.861   7.694 -0.6616  0.5048 -0.0902
  842DECAN   C4 8404   5.272   1.850   7.544 -0.2297  0.2016 -0.1711
  842DECAN   C5 8405   5.236   1.705   7.506  0.7225 -0.0931  0.0167
  842DECAN   C6 8406   5.231   1.687   7.353 -0.0892  0.3038 -0.0122
  842DECAN   C7 8407   5.162   1.555   7.314 -0.5171  0.4743  0.1621
  842DECAN   C8 8408   5.152   1.532   7.162 -0.1587 -0.1044  0.2216
  842DECAN   C9 8409   5.284   1.487   7.097 -0.1056  0.8246 -0.3236
  842DECAN  C10 8410   5.281   1.444   6.949 -0.6539  0.1472 -0.1220
  843DECAN   C1 8411   3.208   0.847   6.552 -0.1414  0.2169 -0.2558
  843DECAN   C2 8412   3.277   0.746   6.459 -0.2340  0.2130 -0.3204
  843DECAN   C3 8413   3.279   0.814   6.320  0.0452  0.6204 -0.1195
  843DECAN   C4 8414   3.143   0.814   6.247  0.1316 -0.6334 -0.3083
  843DECAN   C5 8415   3.167   0.865   6.103 -0.0824 -0.1110 -0.1637
  843DECAN   C6 8416   3.037   0.889   6.025 -0.1308  0.5624  0.1222
  843DECAN   C7 8417   3.075   0.951   5.889  0.4732 -0.5923 -0.2438
  843DECAN   C8 8418   2.947   0.965   5.804  0.1770 -0.0915  0.2799
  843DECAN   C9 8419   2.965   1.055   5.681 -0.1766 -0.3116  0.0651
  843DECAN  C10 8420   2.851   1.066   5.578 -0.3691 -1.3502  0.1630
  844DECAN   C1 8421   9.906   7.523   9.253 -0.0754  0.0981  0.3989
  844DECAN   C2 8422   9.971   7.648   9.314 -0.1723  0.3254  0.0361
  844DECAN   C3 8423  10.105   7.625   9.386  0.0670 -0.4742 -0.6469
  844DECAN   C4 8424  10.113   7.525   9.502 -0.7078  0.4427  0.2172
  844DECAN   C5 8425  10.249   7.542   9.574 -0.2185 -0.5612 -0.4492
  844DECAN   C6 8426  10.284   7.416   9.656 -0.2547 -0.1370  0.2302
  844DECAN   C7 8427  10.405   7.435   9.749  0.0440  0.5010 -0.2830
  844DECAN   C8 8428  10.529   7.481   9.670  0.0296  0.0487 -0.5711
  844DECAN   C9 8429  10.648   7.508   9.763 -0.6212  0.0491  0.2747
  844DECAN  C10 8430  10.786   7.523   9.696 -0.5330 -0.0928  0.4217
  845DECAN   C1 8431   8.625   8.159   8.676  0.1156 -0.1605  0.1015
  845DECAN   C2 8432   8.627   8.217   8.533 -0.1526 -0.2852  0.0463
  845DECAN   C3 8433   8.520   8.151   8.444  0.5308 -0.7691 -0.4286
  845DECAN   C4 8434   8.503   8.204   8.300 -0.3713 -0.1038 -0.0862
  845DECAN   C5 8435   8.407   8.319   8.265 -0.7209 -0.2723  0.3152
  845DECAN   C6 8436   8.425   8.359   8.118  0.0191  0.0202  0.4802
  845DECAN   C7 8437   8.334   8.472   8.067 -0.1310 -0.2238  0.2030
  845DECAN   C8 8438   8.182   8.451   8.085 -0.1214  0.0093  0.5377
  845DECAN   C9 8439   8.079   8.555   8.038  0.3077  0.1497 -0.1097
  845DECAN  C10 8440   7.934   8.509   8.057  0.2397  0.2694 -0.3320
  846DECAN   C1 8441   1.418   1.853  13.862 -0.7036  0.3426  0.3749
  846DECAN   C2 8442   1.534   1.893  13.956 -0.0687  0.6177 -0.5167
  846DECAN   C3 8443   1.651   1.794  13.935 -0.1686  0.4031 -0.0692
  846DECAN   C4 8444   1.776   1.816  14.023 -0.0559 -0.3050 -0.0490
  846DECAN   C5 8445   1.803   1.967  14.040 -0.3259 -0.2732  0.0991
  846DECAN   C6 8446   1.926   2.000  14.126 -0.3181 -0.3071  0.1012
  846DECAN   C7 8447   1.953   2.151  14.125 -0.1783 -0.3346 -0.1581
  846DECAN   C8 8448   2.093   2.185  14.181 -0.5982  0.3008  0.5191
  846DECAN   C9 8449   2.164   2.317  14.147 -0.2572 -0.0711 -0.2272
  846DECAN  C10 8450   2.309   2.322  14.198 -0.2785  0.0767 -0.1809
  847DECAN   C1 8451   4.439   3.012   4.615 -0.0002 -0.1420  0.4635
  847DECAN   C2 8452   4.463   2.864   4.581 -0.1826 -0.1243  0.2522
  847DECAN   C3 8453   4.474   2.833   4.431 -0.4401  0.0725  0.1924
  847DECAN   C4 8454   4.481   2.681   4.406  0.2526  0.1275  0.0256
  847DECAN   C5 8455   4.596   2.607   4.476  0.5380  0.3594 -0.2011
  847DECAN   C6 8456   4.589   2.455   4.453  0.2242  0.4401 -0.6627
  847DECAN   C7 8457   4.709   2.384   4.518 -0.4724  0.0593  0.2221
  847DECAN   C8 8458   4.847   2.443   4.485 -0.5111 -0.2609 -0.5263
  847DECAN   C9 8459   4.963   2.380   4.565 -0.2923  0.5555 -0.1866
  847DECAN  C10 8460   5.086   2.472   4.566  0.6978 -0.7291  0.0082
  848DECAN   C1 8461   8.040   4.851   4.295 -0.5032  0.1398  0.4004
  848DECAN   C2 8462   8.173   4.824   4.367 -0.2340 -0.0270 -0.1521
  848DECAN   C3 8463   8.300   4.876   4.297 -0.0573  0.4367  0.5015
  848DECAN   C4 8464   8.437   4.838   4.355 -0.0217 -0.3419 -0.0755
  848DECAN   C5 8465   8.458   4.687   4.375  0.2189 -0.2591  0.3241
  848DECAN   C6 8466   8.600   4.654   4.425  0.3835 -0.3400 -0.1850
  848DECAN   C7 8467   8.711   4.708   4.333 -0.2281  0.3318 -0.5414
  848DECAN   C8 8468   8.719   4.622   4.205 -0.3726 -0.2663 -0.1533
  848DECAN   C9 8469   8.825   4.670   4.104  0.1074  0.2089  0.5613
  848DECAN  C10 8470   8.867   4.578   3.988 -0.4298  0.0779  0.4672
  849DECAN   C1 8471   4.083   9.947   3.949 -0.2451  0.0615  0.3134
  849DECAN   C2 8472   4.187   9.959   4.061  0.2502 -0.2804 -0.1043
  849DECAN   C3 8473   4.188   9.828   4.142 -0.3383  0.0763  0.4927
  849DECAN   C4 8474   4.050   9.807   4.208 -0.5493 -0.1064  0.0005
  849DECAN   C5 8475   4.070   9.697   4.314 -0.4803 -0.3409 -0.2555
  849DECAN   C6 8476   3.937   9.673   4.388 -0.2178 -0.5280  0.1525
  849DECAN   C7 8477   3.890   9.803   4.456 -0.1343 -0.1917 -0.4300
  849DECAN   C8 8478   3.752   9.799   4.524 -0.3573  0.1434 -0.8582
  849DECAN   C9 8479   3.687   9.938   4.534 -0.3043  0.2119 -1.4541
  849DECAN  C10 8480   3.546   9.949   4.595  0.1474 -0.3949 -0.2829
  850DECAN   C1 8481  10.214   5.000  10.449 -0.0957 -0.1208 -0.2103
  850DECAN   C2 8482  10.133   5.011  10.580 -0.3053  0.2700 -0.3720
  850DECAN   C3 8483  10.065   5.146  10.610 -0.8103 -0.0096 -0.2500
  850DECAN   C4 8484   9.989   5.131  10.743  0.3326  0.4519  0.4649
  850DECAN   C5 8485   9.901   5.251  10.781 -0.2047  0.3466 -0.4349
  850DECAN   C6 8486   9.770   5.262  10.701 -0.3167 -0.2239 -0.3333
  850DECAN   C7 8487   9.672   5.361  10.768  0.5289  0.3810  0.0190
  850DECAN   C8 8488   9.572   5.405  10.659  0.1269  0.0919  0.2689
  850DECAN   C9 8489   9.463   5.304  10.619 -0.0379  0.2474  0.3261
  850DECAN  C10 8490   9.384   5.357  10.499 -0.3076 -0.4483  0.1891
  851DECAN   C1 8491   2.953   2.475   9.746 -0.2796 -0.5468  0.6081
  851DECAN   C2 8492   3.033   2.516   9.621 -0.2515 -0.4897  0.6442
  851DECAN   C3 8493   3.141   2.415   9.579 -0.1752 -0.0461 -0.2549
  851DECAN   C4 8494   3.078   2.283   9.530 -0.0286 -0.0414 -0.4566
  851DECAN   C5 8495   3.184   2.184   9.479  0.4225  0.2540 -0.0907
  851DECAN   C6 8496   3.269   2.234   9.360  0.7832  0.2140  0.1473
  851DECAN   C7 8497   3.357   2.358   9.382  0.3346  0.4179  0.8104
  851DECAN   C8 8498   3.490   2.362   9.305 -0.1190 -0.0587 -0.0122
  851DECAN   C9 8499   3.548   2.505   9.313  0.7404 -0.3806 -0.3823
  851DECAN  C10 8500   3.640   2.548   9.197  0.3530  0.8183 -0.2560
  852DECAN   C1 8501   8.262   4.859   9.352  0.2547  0.2640  0.2285
  852DECAN   C2 8502   8.352   4.798   9.242  0.1007 -0.0513  0.2776
  852DECAN   C3 8503   8.366   4.645   9.254 -0.3495 -0.0968  0.2578
  852DECAN   C4 8504   8.226   4.581   9.249 -0.1650 -0.4833  0.0296
  852DECAN   C5 8505   8.222   4.430   9.278  0.4956 -0.5653 -0.2713
  852DECAN   C6 8506   8.085   4.359   9.277 -0.0117  0.3721  0.4501
  852DECAN   C7 8507   8.104   4.210   9.312  0.0884 -0.0373 -1.2272
  852DECAN   C8 8508   7.966   4.144   9.325  0.2047 -0.0652 -0.0356
  852DECAN   C9 8509   7.953   4.007   9.394  0.1358  0.0214  0.1261
  852DECAN  C10 8510   7.806   3.965   9.415  0.1905 -0.0092  0.4608
  853DECAN   C1 8511   1.212   5.674  10.842 -0.4049  0.2002 -0.3778
  853DECAN   C2 8512   1.109   5.646  10.731 -0.6985 -0.0348 -0.0454
  853DECAN   C3 8513   1.145   5.731  10.608 -0.2204 -0.1433  0.0212
  853DECAN   C4 8514   1.060   5.680  10.490 -0.1860  0.3177 -0.2039
  853DECAN   C5 8515   1.131   5.573  10.406  0.4804  0.3764  0.2767
  853DECAN   C6 8516   1.040   5.550  10.284 -0.2040 -0.6521  0.9655
  853DECAN   C7 8517   1.093   5.437  10.193  0.4334  0.5822 -0.2452
  853DECAN   C8 8518   0.999   5.406  10.075  0.1502 -0.2622  0.1887
  853DECAN   C9 8519   1.058   5.304   9.976 -0.0717 -0.1237 -0.0888
  853DECAN  C10 8520   1.195   5.353   9.926 -0.2288 -0.0392 -0.4362
  854DECAN   C1 8521   8.151   0.948   9.804 -0.2085  0.5421  0.5506
  854DECAN   C2 8522   8.296   0.908   9.769 -0.4666 -0.3564  0.4857
  854DECAN   C3 8523   8.409   0.996   9.826 -0.1663 -0.5524  0.1897
  854DECAN   C4 8524   8.552   0.969   9.776  0.0545  0.2654  0.3712
  854DECAN   C5 8525   8.648   1.053   9.863  0.2665  0.5340 -0.1165
  854DECAN   C6 8526   8.652   1.006  10.009  0.1388 -0.1134 -0.3158
  854DECAN   C7 8527   8.755   0.900  10.053 -0.3460 -0.2630  0.4895
  854DECAN   C8 8528   8.741   0.814  10.180  0.0502  0.1444  0.8134
  854DECAN   C9 8529   8.839   0.700  10.216  0.1585 -0.0675 -0.1267
  854DECAN  C10 8530   8.802   0.630  10.348  0.1874 -0.7820 -0.4939
  855DECAN   C1 8531   0.931   2.968   9.458 -0.0304  0.3316 -0.0530
  855DECAN   C2 8532   1.069   2.981   9.525  0.1200  0.7167 -0.4338
  855DECAN   C3 8533   1.083   2.974   9.679 -0.0322  0.3837 -0.4345
  855DECAN   C4 8534   1.228   2.968   9.731 -0.1618  0.4816 -0.0625
  855DECAN   C5 8535   1.218   2.967   9.885 -0.4549 -0.2411 -0.0840
  855DECAN   C6 8536   1.147   2.839   9.932 -0.4116 -0.3043 -0.1906
  855DECAN   C7 8537   1.212   2.704   9.894  0.5968  0.0647  0.2026
  855DECAN   C8 8538   1.113   2.598   9.944  0.2597  0.3772  0.2049
  855DECAN   C9 8539   1.134   2.452   9.898  0.0334  0.3654  0.1408
  855DECAN  C10 8540   1.055   2.343   9.973 -0.0137  0.1274 -0.2484
  856DECAN   C1 8541   9.627   0.479   4.735 -0.5727  0.2099 -0.6860
  856DECAN   C2 8542   9.478   0.467   4.770 -0.4085  0.1330  0.0028
  856DECAN   C3 8543   9.418   0.325   4.757  0.2899 -0.1484 -0.1951
  856DECAN   C4 8544   9.430   0.276   4.612  0.3608 -0.2314 -0.1609
  856DECAN   C5 8545   9.393   0.127   4.604  0.4919 -0.2862  0.2215
  856DECAN   C6 8546   9.487   0.041   4.690  1.0189 -0.0432 -0.1088
  856DECAN   C7 8547   9.481   0.087   4.837  0.1616 -0.0657 -0.1312
  856DECAN   C8 8548   9.563  11.227   4.915  0.1739  0.3517  0.4210
  856DECAN   C9 8549   9.566   0.024   5.063 -1.2028  0.2017  0.4968
  856DECAN  C10 8550   9.620   0.168   5.073  0.6032 -0.4312  0.1323
  857DECAN   C1 8551  10.275   5.045  13.566  0.0913 -0.1701  0.0036
  857DECAN   C2 8552  10.334   5.146  13.465 -0.3643 -0.1309 -0.2241
  857DECAN   C3 8553  10.245   5.225  13.368  0.1756 -0.0476 -0.6556
  857DECAN   C4 8554  10.321   5.320  13.273  0.4030  0.0254 -0.4036
  857DECAN   C5 8555  10.443   5.384  13.342  0.5660 -0.1358 -0.5416
  857DECAN   C6 8556  10.378   5.486  13.437  0.3586 -0.3038 -0.5019
  857DECAN   C7 8557  10.472   5.542  13.544 -0.5502  0.1130  0.0883
  857DECAN   C8 8558  10.423   5.658  13.634 -0.0446 -0.0835  0.6286
  857DECAN   C9 8559  10.529   5.754  13.691  0.0516  0.0772  0.1829
  857DECAN  C10 8560  10.537   5.899  13.639  0.3400  0.1422  0.4076
  858DECAN   C1 8561   9.838   0.057  11.368 -0.0396  0.4854 -0.2549
  858DECAN   C2 8562   9.691   0.014  11.354  0.0008  0.3531 -0.2651
  858DECAN   C3 8563   9.597   0.073  11.460  0.1043 -0.2705  0.1816
  858DECAN   C4 8564   9.451   0.083  11.413  0.2372  0.0325 -0.1733
  858DECAN   C5 8565   9.344   0.093  11.524 -0.0029 -0.0824 -0.3907
  858DECAN   C6 8566   9.388   0.193  11.633 -0.3735  0.0933 -0.4030
  858DECAN   C7 8567   9.272   0.212  11.733  0.0509 -0.0953  0.1338
  858DECAN   C8 8568   9.228   0.075  11.788  0.1852 -0.1519  0.0990
  858DECAN   C9 8569   9.116   0.077  11.894  0.3921 -0.4425  0.3224
  858DECAN  C10 8570   9.045  11.185  11.912 -0.5213 -0.0172  0.0027
  859DECAN   C1 8571   9.713   1.612   6.831  0.0522 -0.4714  0.1005
  859DECAN   C2 8572   9.827   1.566   6.738 -0.2401  0.1871 -0.5906
  859DECAN   C3 8573   9.807   1.596   6.588 -0.2905 -0.8092 -0.7944
  859DECAN   C4 8574   9.920   1.563   6.489  0.6239 -0.3168  0.0607
  859DECAN   C5 8575  10.054   1.633   6.515  0.0809  0.5973  0.4201
  859DECAN   C6 8576  10.098   1.629   6.662  0.1895  0.0600  0.3727
  859DECAN   C7 8577  10.182   1.749   6.709 -0.2749  0.6145 -0.1992
  859DECAN   C8 8578  10.217   1.736   6.859 -0.3546 -0.0599 -0.2346
  859DECAN   C9 8579  10.272   1.596   6.891 -0.4017  0.0831  0.4945
  859DECAN  C10 8580  10.174   1.479   6.915 -0.0164 -0.2105  0.6512
  860DECAN   C1 8581   1.343   2.462  13.287 -0.1817 -0.3812  1.0593
  860DECAN   C2 8582   1.290   2.317  13.285 -0.0618 -0.4244 -0.7840
  860DECAN   C3 8583   1.384   2.234  13.374 -0.1545  0.2676 -0.0328
  860DECAN   C4 8584   1.353   2.083  13.367  0.1645  0.1829  0.3491
  860DECAN   C5 8585   1.473   1.994  13.405  0.5153  0.5701  0.1538
  860DECAN   C6 8586   1.496   1.869  13.318 -0.6879  0.3673  0.1136
  860DECAN   C7 8587   1.526   1.875  13.167 -0.0278 -1.1653  0.1662
  860DECAN   C8 8588   1.403   1.916  13.083  0.4147 -0.0349  0.0572
  860DECAN   C9 8589   1.438   1.976  12.946  0.0559  0.1814  0.0574
  860DECAN  C10 8590   1.325   2.046  12.869 -0.1324  0.0035  0.1717
  861DECAN   C1 8591   3.803   7.486  14.346 -0.2595 -0.0847 -0.1116
  861DECAN   C2 8592   3.849   7.354  14.412  0.1782  0.2085  0.1833
  861DECAN   C3 8593   4.000   7.331  14.431  0.1542 -0.4040 -0.3345
  861DECAN   C4 8594   4.012   7.201  14.512  0.0984 -0.1386  0.0989
  861DECAN   C5 8595   4.161   7.162  14.518  0.0385 -0.3926 -0.0027
  861DECAN   C6 8596   4.197   7.060  14.627  0.6750 -0.2831 -0.1055
  861DECAN   C7 8597   4.123   6.924  14.625  0.5023 -0.1884 -0.1427
  861DECAN   C8 8598   4.184   6.815  14.715  0.5087  0.1307  0.2420
  861DECAN   C9 8599   4.110   6.681  14.707  0.1584  0.3263  0.1826
  861DECAN  C10 8600   3.976   6.707  14.778  0.2996 -0.0902  0.6056
  862DECAN   C1 8601   7.023   5.628   4.039  0.2124 -0.0517  0.3850
  862DECAN   C2 8602   7.028   5.480   4.080  0.3279 -0.0519  0.3721
  862DECAN   C3 8603   6.915   5.396   4.016  0.2637  0.0493  0.3527
  862DECAN   C4 8604   6.894   5.251   4.063  0.5287 -0.1764 -0.2140
  862DECAN   C5 8605   6.784   5.183   3.979 -0.3740  0.2405  0.6014
  862DECAN   C6 8606   6.768   5.038   4.027  0.2690 -0.0686 -0.0828
  862DECAN   C7 8607   6.657   4.973   3.942  0.2673  0.2191 -0.2994
  862DECAN   C8 8608   6.624   4.829   3.986  0.4488  0.2060 -0.2039
  862DECAN   C9 8609   6.516   4.750   3.908 -0.2392  0.6491  0.2870
  862DECAN  C10 8610   6.504   4.608   3.966  0.1619  0.3083 -0.4518
  863DECAN   C1 8611   4.659   3.757   8.462  0.3085 -0.1841 -0.0633
  863DECAN   C2 8612   4.567   3.649   8.402  0.3995 -0.2889 -0.0159
  863DECAN   C3 8613   4.613   3.591   8.267  0.2932  0.1381 -0.2364
  863DECAN   C4 8614   4.511   3.496   8.203 -0.1093  0.3892  0.0225
  863DECAN   C5 8615   4.543   3.478   8.053  0.4189 -0.0766  0.1824
  863DECAN   C6 8616   4.422   3.438   7.966  0.3381  0.7219 -0.0842
  863DECAN   C7 8617   4.289   3.497   8.017  0.1272  0.1580  0.0287
  863DECAN   C8 8618   4.170   3.446   7.934 -0.0128 -0.3945  0.5596
  863DECAN   C9 8619   4.036   3.490   7.997  0.0632  0.0772  0.3938
  863DECAN  C10 8620   4.017   3.643   8.004 -0.5915  0.0073  0.2144
  864DECAN   C1 8621  11.089   4.599  11.855 -0.0407  0.1084 -0.6738
  864DECAN   C2 8622  11.039   4.472  11.927  0.1610  0.3572 -0.0878
  864DECAN   C3 8623  10.899   4.436  11.874  0.2230  0.0828 -0.0684
  864DECAN   C4 8624  10.807   4.342  11.954  0.0048  0.2631 -0.1063
  864DECAN   C5 8625  10.703   4.251  11.886 -0.0956 -0.0514  0.4573
  864DECAN   C6 8626  10.730   4.121  11.808 -0.4077  0.2354 -0.1454
  864DECAN   C7 8627  10.684   3.993  11.880 -0.0120  0.0672 -0.1888
  864DECAN   C8 8628  10.720   3.963  12.027  0.4033  0.1367 -0.2764
  864DECAN   C9 8629  10.647   4.056  12.125  0.2660  0.2668 -0.5020
  864DECAN  C10 8630  10.684   4.054  12.274  0.2207  0.3506 -0.4901
  865DECAN   C1 8631   4.089   8.602  13.928  0.1765  0.1046 -0.0769
  865DECAN   C2 8632   4.095   8.457  13.876  0.0968 -0.1430  0.5976
  865DECAN   C3 8633   4.228   8.383  13.903  0.2139  0.0246  0.4858
  865DECAN   C4 8634   4.245   8.311  14.038 -0.0178 -0.4035  0.2898
  865DECAN   C5 8635   4.148   8.197  14.073 -0.4594  0.1884  1.0488
  865DECAN   C6 8636   4.170   8.140  14.215  1.2429  0.0048  0.7290
  865DECAN   C7 8637   4.169   8.237  14.334  0.2328  0.2882  0.4961
  865DECAN   C8 8638   4.042   8.325  14.330  0.1886  0.1723 -1.1497
  865DECAN   C9 8639   4.078   8.464  14.385  0.0135 -0.2692  0.1098
  865DECAN  C10 8640   3.959   8.561  14.375  0.2570 -0.0656 -0.8919
  866DECAN   C1 8641   4.685   6.168  12.997  0.6760  0.3013 -0.1123
  866DECAN   C2 8642   4.668   6.303  12.925  0.0449  0.1739 -0.2102
  866DECAN   C3 8643   4.617   6.284  12.781 -0.3215  0.1279 -0.0755
  866DECAN   C4 8644   4.581   6.417  12.712 -0.2440  0.1395 -0.0933
  866DECAN   C5 8645   4.456   6.397  12.624  0.3161 -0.5915 -0.7483
  866DECAN   C6 8646   4.330   6.332  12.685  0.2186  0.5562  0.3063
  866DECAN   C7 8647   4.252   6.430  12.775 -0.3295 -0.1062  0.5617
  866DECAN   C8 8648   4.178   6.551  12.715 -0.1239 -0.5784 -0.6600
  866DECAN   C9 8649   4.074   6.612  12.810  0.3274 -0.4286 -0.2578
  866DECAN  C10 8650   3.964   6.691  12.736  0.1699 -0.7407 -0.3578
  867DECAN   C1 8651   5.923   6.178  14.045  0.0425 -0.3654 -0.0088
  867DECAN   C2 8652   5.912   6.184  13.892 -0.1791  0.0003  0.0188
  867DECAN   C3 8653   5.830   6.297  13.827 -0.2691 -0.2759 -0.3595
  867DECAN   C4 8654   5.679   6.281  13.849 -0.2614  0.6058  0.3901
  867DECAN   C5 8655   5.593   6.356  13.746 -0.1627  0.6553  0.3447
  867DECAN   C6 8656   5.440   6.351  13.766 -0.1491 -0.6641  0.1817
  867DECAN   C7 8657   5.369   6.458  13.681  0.7056  0.2063  0.5468
  867DECAN   C8 8658   5.223   6.464  13.729  0.4750  0.1407 -0.1456
  867DECAN   C9 8659   5.165   6.601  13.691  0.2609  0.0820 -0.0344
  867DECAN  C10 8660   5.135   6.614  13.541  0.4304  0.4999 -0.0348
  868DECAN   C1 8661   5.285   0.302  12.492  0.2357 -0.1068 -0.3822
  868DECAN   C2 8662   5.370   0.289  12.364 -0.1631 -0.6508 -0.5944
  868DECAN   C3 8663   5.523   0.291  12.378 -0.2127 -0.1136 -0.0783
  868DECAN   C4 8664   5.589   0.339  12.248  0.0262 -0.5168 -0.1093
  868DECAN   C5 8665   5.541   0.246  12.135  0.0785 -0.3893 -0.2398
  868DECAN   C6 8666   5.551   0.096  12.169  0.0537 -0.3974 -0.2685
  868DECAN   C7 8667   5.494   0.005  12.059 -0.1149 -0.3208 -0.2437
  868DECAN   C8 8668   5.531  11.099  12.072  0.2491 -0.1741  0.4431
  868DECAN   C9 8669   5.429  11.020  12.156 -0.0037 -0.3460 -0.0228
  868DECAN  C10 8670   5.471  10.876  12.192  0.3255 -0.3250 -0.3173
  869DECAN   C1 8671   5.032   3.309   7.049  0.6022 -0.2260 -0.3225
  869DECAN   C2 8672   5.000   3.237   6.917 -0.6305  0.1467 -0.2349
  869DECAN   C3 8673   5.105   3.261   6.807  0.1819 -0.3902  0.4111
  869DECAN   C4 8674   5.103   3.412   6.780  0.2485 -0.3655  0.5445
  869DECAN   C5 8675   5.131   3.508   6.897  0.4678 -0.1957  0.3544
  869DECAN   C6 8676   5.132   3.659   6.867  0.0499 -0.0569  1.0214
  869DECAN   C7 8677   5.230   3.691   6.753 -0.4753 -0.2159  0.5198
  869DECAN   C8 8678   5.357   3.603   6.755 -0.4148 -0.1629 -0.4062
  869DECAN   C9 8679   5.486   3.662   6.695 -0.8983  0.4684 -0.8350
  869DECAN  C10 8680   5.547   3.773   6.782 -0.5202 -0.2094 -0.2283
  870DECAN   C1 8681   6.795  11.055   6.928 -0.2277 -1.1124  0.1190
  870DECAN   C2 8682   6.644  11.056   6.958 -0.1376 -0.1634  0.5850
  870DECAN   C3 8683   6.549  11.157   6.890 -0.1843 -0.4990  0.1479
  870DECAN   C4 8684   6.400  11.122   6.898 -0.4504  0.3956 -0.7735
  870DECAN   C5 8685   6.370  10.990   6.824 -0.2807 -0.2679  0.3293
  870DECAN   C6 8686   6.223  10.946   6.813 -0.2115 -0.3367 -0.3823
  870DECAN   C7 8687   6.222  10.798   6.773  0.0549 -0.5262  0.2911
  870DECAN   C8 8688   6.087  10.735   6.732  0.1053 -0.3302 -0.1766
  870DECAN   C9 8689   6.089  10.584   6.703  0.2878 -0.3850  0.1233
  870DECAN  C10 8690   6.189  10.513   6.610  0.4257 -0.0491  0.0142
  871DECAN   C1 8691   8.784   6.084   8.545 -0.5340  0.0015 -0.0064
  871DECAN   C2 8692   8.723   6.202   8.466 -0.1842  0.0715 -0.1742
  871DECAN   C3 8693   8.570   6.224   8.467 -0.1807  0.0970  0.0558
  871DECAN   C4 8694   8.527   6.333   8.367 -0.5601 -0.1447 -0.0453
  871DECAN   C5 8695   8.376   6.360   8.378 -0.5063  0.0482  0.2261
  871DECAN   C6 8696   8.351   6.483   8.289  0.4044 -0.2246 -0.4225
  871DECAN   C7 8697   8.198   6.500   8.284  0.3337 -0.6223  0.3484
  871DECAN   C8 8698   8.136   6.401   8.184 -0.2162  0.3252 -0.2617
  871DECAN   C9 8699   7.983   6.385   8.191 -0.1357 -0.3175  0.1020
  871DECAN  C10 8700   7.917   6.519   8.226  0.3218  0.1036 -0.6220
  872DECAN   C1 8701   3.702   5.464   7.778 -0.8474  0.3604  0.6133
  872DECAN   C2 8702   3.784   5.405   7.895 -0.2492 -0.0494 -0.0068
  872DECAN   C3 8703   3.884   5.303   7.837 -0.0920 -0.2929  0.6865
  872DECAN   C4 8704   3.956   5.218   7.943  0.2910 -0.0426  0.6306
  872DECAN   C5 8705   4.038   5.097   7.896  0.0293  0.0288 -0.0189
  872DECAN   C6 8706   4.089   5.002   8.006 -0.0137 -0.0465 -0.0647
  872DECAN   C7 8707   4.173   4.888   7.946 -0.2049 -0.2304  0.0156
  872DECAN   C8 8708   4.213   4.793   8.060 -0.2967 -0.1023  0.1547
  872DECAN   C9 8709   4.327   4.700   8.013 -0.1182  0.0691  0.2461
  872DECAN  C10 8710   4.295   4.588   7.912  0.0585  0.0818  0.1754
  873DECAN   C1 8711   8.544   5.312  14.408 -0.7144 -0.2489 -0.0940
  873DECAN   C2 8712   8.500   5.406  14.294 -0.1601 -0.0141 -0.1145
  873DECAN   C3 8713   8.349   5.430  14.278 -0.1036  0.2149 -0.3253
  873DECAN   C4 8714   8.277   5.517  14.382  0.6237  0.3770  0.0479
  873DECAN   C5 8715   8.126   5.530  14.352  0.5663  0.3655  0.3248
  873DECAN   C6 8716   8.074   5.646  14.439  0.5732  0.5122  0.1369
  873DECAN   C7 8717   8.097   5.626  14.590 -0.0046 -0.1742  0.1423
  873DECAN   C8 8718   8.086   5.758  14.668  0.5176  0.0084 -0.0882
  873DECAN   C9 8719   7.955   5.839  14.659  0.0290 -0.8147 -0.4582
  873DECAN  C10 8720   7.848   5.785  14.755  0.1226 -0.0490  0.0781
  874DECAN   C1 8721   7.611   7.441  13.675 -0.5457  0.0840 -0.3410
  874DECAN   C2 8722   7.749   7.468  13.610 -0.2491 -0.5997 -0.0120
  874DECAN   C3 8723   7.737   7.465  13.457 -0.5736 -0.3730  0.0065
  874DECAN   C4 8724   7.665   7.591  13.406 -0.2275 -0.0409  0.3363
  874DECAN   C5 8725   7.657   7.596  13.252  0.1230 -0.2954  0.3060
  874DECAN   C6 8726   7.574   7.719  13.208  0.2346 -0.3155  0.0380
  874DECAN   C7 8727   7.462   7.745  13.310  0.3411  0.4623 -0.0397
  874DECAN   C8 8728   7.365   7.858  13.271 -0.5718 -0.3916 -0.2745
  874DECAN   C9 8729   7.265   7.897  13.382 -0.1136 -0.0726  0.0274
  874DECAN  C10 8730   7.139   7.809  13.388 -0.1827  0.0414  0.2838
  875DECAN   C1 8731   4.443   8.783   9.106 -0.2664  0.1297 -0.1780
  875DECAN   C2 8732   4.400   8.810   8.961 -0.5404  0.3868 -0.0503
  875DECAN   C3 8733   4.274   8.733   8.915 -0.4029 -0.0027  0.2141
  875DECAN   C4 8734   4.282   8.581   8.934 -0.0508  0.0264  0.3009
  875DECAN   C5 8735   4.146   8.510   8.922 -0.3133  0.5464  0.2163
  875DECAN   C6 8736   4.146   8.387   9.014  0.0847 -0.0289 -0.5432
  875DECAN   C7 8737   4.012   8.311   9.014 -0.1645  0.4017 -0.1386
  875DECAN   C8 8738   3.889   8.402   9.005 -0.1716  0.4210  0.1584
  875DECAN   C9 8739   3.833   8.469   9.132 -0.2484  0.1689  0.2573
  875DECAN  C10 8740   3.727   8.576   9.098  0.0413  0.4881  0.3562
  876DECAN   C1 8741   6.310  11.222   4.044 -0.6094  0.2353 -0.1950
  876DECAN   C2 8742   6.274  11.075   4.073 -0.0114  0.0050 -0.6007
  876DECAN   C3 8743   6.293  11.029   4.219  0.4121 -0.1795 -0.7104
  876DECAN   C4 8744   6.434  11.034   4.279  0.1585 -0.0102 -0.1233
  876DECAN   C5 8745   6.443  11.016   4.432  0.2433  0.5155 -0.0651
  876DECAN   C6 8746   6.582  11.060   4.481  0.4043  0.4182 -0.4254
  876DECAN   C7 8747   6.612  11.047   4.632  0.3863 -0.0641 -0.4633
  876DECAN   C8 8748   6.645  10.907   4.688  0.1271  0.1027  0.1205
  876DECAN   C9 8749   6.666  10.915   4.840  0.4973  0.3633  0.0569
  876DECAN  C10 8750   6.553  10.974   4.927  0.0402 -0.2306 -0.1283
  877DECAN   C1 8751   7.761   4.476   4.491 -0.0841 -0.2426 -0.0829
  877DECAN   C2 8752   7.914   4.489   4.497 -0.0342 -0.5687 -0.6101
  877DECAN   C3 8753   7.991   4.382   4.577 -0.1069  0.1400  0.4179
  877DECAN   C4 8754   8.132   4.355   4.522 -0.2740  0.1922 -0.0388
  877DECAN   C5 8755   8.201   4.230   4.581  0.2102  0.4375 -0.0856
  877DECAN   C6 8756   8.342   4.203   4.525  0.3058  0.4625  0.1419
  877DECAN   C7 8757   8.393   4.061   4.555 -0.2012  0.3780  0.6257
  877DECAN   C8 8758   8.528   4.028   4.488 -0.4612  0.3358  0.1102
  877DECAN   C9 8759   8.584   3.886   4.508 -0.1401  0.4088 -0.2577
  877DECAN  C10 8760   8.722   3.851   4.450  0.1565  0.2585  0.5290
  878DECAN   C1 8761   7.319   8.804   5.960  0.0849  0.4579 -0.3201
  878DECAN   C2 8762   7.375   8.813   5.816 -0.0261 -0.1275 -0.4028
  878DECAN   C3 8763   7.439   8.952   5.807 -0.3524  0.0257 -0.3948
  878DECAN   C4 8764   7.524   8.987   5.683  0.2494  0.0906  0.0331
  878DECAN   C5 8765   7.580   9.129   5.699 -0.2232  0.2462  0.3200
  878DECAN   C6 8766   7.626   9.191   5.566 -0.3177  0.1785  0.2561
  878DECAN   C7 8767   7.696   9.087   5.477 -0.0299  0.3920  0.2330
  878DECAN   C8 8768   7.729   9.128   5.332 -0.4758  0.1753  0.0713
  878DECAN   C9 8769   7.829   9.046   5.248  0.0072  0.4715  0.3550
  878DECAN  C10 8770   7.819   9.082   5.099 -0.7118 -0.6162  0.1298
  879DECAN   C1 8771   2.534   8.676  13.792  0.1908  0.4911  0.0699
  879DECAN   C2 8772   2.624   8.713  13.911 -0.0565  0.1721  0.3583
  879DECAN   C3 8773   2.539   8.781  14.020  0.0545 -0.1254  0.6322
  879DECAN   C4 8774   2.614   8.795  14.153  1.1186 -0.4065  0.0686
  879DECAN   C5 8775   2.736   8.885  14.126  0.4361  0.5705  0.1800
  879DECAN   C6 8776   2.686   9.028  14.099  0.3593  0.4929 -0.0926
  879DECAN   C7 8777   2.810   9.119  14.083  0.4220  0.3909 -0.1952
  879DECAN   C8 8778   2.796   9.259  14.021 -0.1871  0.4188 -0.0020
  879DECAN   C9 8779   2.928   9.327  13.979  0.0487  0.0499  0.1478
  879DECAN  C10 8780   3.003   9.390  14.098  0.0915 -0.4104  0.3678
  880DECAN   C1 8781   8.907   4.825  14.731 -0.2592  0.5736  0.2229
  880DECAN   C2 8782   9.054   4.787  14.754 -0.2549  0.1959 -0.3793
  880DECAN   C3 8783   9.142   4.837  14.638  0.3751  0.1766  0.0776
  880DECAN   C4 8784   9.136   4.744  14.515  0.0606  0.2887  0.0060
  880DECAN   C5 8785   9.116   4.598  14.562  0.6331  0.1857 -0.0574
  880DECAN   C6 8786   9.178   4.497  14.464  0.4384 -0.5638  0.5837
  880DECAN   C7 8787   9.330   4.500  14.440  0.3545 -0.1392  0.0747
  880DECAN   C8 8788   9.378   4.628  14.369 -0.1128  0.0447  0.0810
  880DECAN   C9 8789   9.532   4.638  14.359 -0.1383  0.4855  0.1019
  880DECAN  C10 8790   9.611   4.632  14.491 -0.3280  0.2924  0.2080
  881DECAN   C1 8791   7.726   6.363   7.481  0.1734  0.2335 -0.2053
  881DECAN   C2 8792   7.710   6.430   7.619  0.1155 -0.1220 -0.0377
  881DECAN   C3 8793   7.710   6.320   7.727 -0.2872 -0.2266 -0.1399
  881DECAN   C4 8794   7.819   6.212   7.711 -0.2783 -0.2298 -0.0612
  881DECAN   C5 8795   7.843   6.122   7.834  0.4806  0.8164  0.5702
  881DECAN   C6 8796   7.966   6.033   7.810  0.0912  0.4764 -0.2213
  881DECAN   C7 8797   7.955   5.952   7.680  0.2193 -0.3871  0.2955
  881DECAN   C8 8798   8.007   6.036   7.562 -0.3388 -0.7191 -0.1918
  881DECAN   C9 8799   8.030   5.955   7.433 -0.1255 -0.8058 -0.0992
  881DECAN  C10 8800   8.142   5.994   7.335 -0.1299 -0.1423  0.1536
  882DECAN   C1 8801   4.068   6.507  11.843 -0.0689 -0.8353  0.4019
  882DECAN   C2 8802   3.972   6.391  11.812  0.0245 -0.6907 -0.4578
  882DECAN   C3 8803   3.931   6.309  11.936 -0.0869 -0.1056 -0.1075
  882DECAN   C4 8804   3.861   6.173  11.920 -0.1996 -0.0452 -0.1220
  882DECAN   C5 8805   3.797   6.123  12.051 -0.0872  0.1996  0.0272
  882DECAN   C6 8806   3.686   6.019  12.026  0.0982  0.0831 -0.3046
  882DECAN   C7 8807   3.623   5.957  12.152 -0.4738  0.7604 -0.2496
  882DECAN   C8 8808   3.507   5.861  12.118  0.2404 -0.3894  0.4960
  882DECAN   C9 8809   3.410   5.829  12.233 -0.2254 -0.0869  0.1880
  882DECAN  C10 8810   3.275   5.760  12.205 -0.3564  0.3276 -0.2321
  883DECAN   C1 8811   2.849   2.706   6.032 -0.0430  0.0300  0.2096
  883DECAN   C2 8812   2.938   2.710   6.158  0.0743  0.3066  0.1177
  883DECAN   C3 8813   3.010   2.579   6.193  0.0610  0.2144 -0.1914
  883DECAN   C4 8814   3.075   2.573   6.333 -0.2164  0.0565 -0.0670
  883DECAN   C5 8815   3.149   2.441   6.361 -0.1397  0.1892  0.3659
  883DECAN   C6 8816   3.245   2.446   6.481  0.2361 -0.4123  0.0967
  883DECAN   C7 8817   3.314   2.308   6.483  0.0182 -0.5378 -0.6782
  883DECAN   C8 8818   3.339   2.254   6.625 -0.5971  0.9704  0.0294
  883DECAN   C9 8819   3.453   2.307   6.713  0.0888  0.0110 -0.2702
  883DECAN  C10 8820   3.418   2.449   6.761 -0.1202 -0.0198 -0.3304
  884DECAN   C1 8821   4.233   0.822  14.815  0.6593  0.1948  0.0232
  884DECAN   C2 8822   4.228   0.954  14.894 -1.4702 -0.1682  0.5724
  884DECAN   C3 8823   4.200   1.083  14.814  0.4126 -0.0015  0.1247
  884DECAN   C4 8824   4.176   1.197  14.914 -0.3688 -0.0262 -0.0308
  884DECAN   C5 8825   4.112   1.321  14.849 -0.0006  0.3212  0.2590
  884DECAN   C6 8826   4.190   1.400  14.742  0.0213  0.6191  0.4957
  884DECAN   C7 8827   4.139   1.543  14.715 -0.0266  0.4972 -0.0687
  884DECAN   C8 8828   4.189   1.617  14.590 -0.4221  0.2568 -0.3711
  884DECAN   C9 8829   4.150   1.766  14.579 -0.0530  0.4299  0.5587
  884DECAN  C10 8830   4.171   1.827  14.439  0.0613 -0.4472  0.1845
  885DECAN   C1 8831   4.566   9.316  11.823  0.0882 -0.2502  0.1894
  885DECAN   C2 8832   4.419   9.298  11.866  0.0851  0.1056  0.3296
  885DECAN   C3 8833   4.394   9.173  11.952  0.1800 -0.4170 -0.3944
  885DECAN   C4 8834   4.459   9.175  12.091 -1.1017  0.2750  0.2162
  885DECAN   C5 8835   4.442   9.044  12.170 -0.4032 -0.0425 -0.1503
  885DECAN   C6 8836   4.297   9.013  12.213 -0.3316  0.0659  0.1726
  885DECAN   C7 8837   4.271   8.893  12.305  0.3453 -0.1452  0.1007
  885DECAN   C8 8838   4.122   8.855  12.311  0.3335  0.0004  0.7583
  885DECAN   C9 8839   4.049   8.989  12.333 -0.4609 -0.3125  0.0642
  885DECAN  C10 8840   3.899   8.981  12.368 -0.4299 -0.7146  0.1081
  886DECAN   C1 8841   9.003   9.872  11.294  0.0864 -0.3393  0.1933
  886DECAN   C2 8842   9.079   9.949  11.403 -0.2374 -0.4075  0.4713
  886DECAN   C3 8843   9.222   9.894  11.418 -0.2341 -0.4923  0.1216
  886DECAN   C4 8844   9.244   9.783  11.523 -0.2992 -0.4549  0.1744
  886DECAN   C5 8845   9.390   9.744  11.551 -0.0988  0.3803  0.3377
  886DECAN   C6 8846   9.395   9.609  11.625 -0.1865  0.3640  0.3130
  886DECAN   C7 8847   9.533   9.546  11.652 -0.3290  0.0386  0.2800
  886DECAN   C8 8848   9.602   9.541  11.515  0.3362  0.3538  0.6003
  886DECAN   C9 8849   9.749   9.495  11.524  0.4130  0.4667  0.0053
  886DECAN  C10 8850   9.815   9.475  11.387  1.1565 -0.2363  0.4599
  887DECAN   C1 8851   2.401  10.533   7.610  0.3931 -0.5398  1.0322
  887DECAN   C2 8852   2.302  10.418   7.584 -0.3811  0.3525 -0.0349
  887DECAN   C3 8853   2.222  10.382   7.711 -0.0550  0.2032  0.1301
  887DECAN   C4 8854   2.118  10.272   7.680 -0.3151  0.6739 -0.7195
  887DECAN   C5 8855   2.027  10.255   7.803 -0.0555  0.5283 -0.5473
  887DECAN   C6 8856   1.919  10.146   7.791 -0.0809  0.4456  0.3541
  887DECAN   C7 8857   1.845  10.110   7.921 -0.5225  0.2019  0.0379
  887DECAN   C8 8858   1.753   9.987   7.911  0.1498 -0.3275  0.2725
  887DECAN   C9 8859   1.652   9.992   8.028  0.1924 -0.2323  0.3046
  887DECAN  C10 8860   1.561  10.116   8.040 -0.1498 -0.4649  0.1090
  888DECAN   C1 8861   1.361   5.220   9.091 -0.1859  0.5910 -0.6539
  888DECAN   C2 8862   1.456   5.109   9.043 -0.2896  0.1256  0.1975
  888DECAN   C3 8863   1.413   5.054   8.907 -0.5158 -0.1076  0.3628
  888DECAN   C4 8864   1.486   4.928   8.857  0.2716  0.5437 -0.1527
  888DECAN   C5 8865   1.636   4.931   8.893  0.1775 -0.3063  0.3222
  888DECAN   C6 8866   1.724   4.805   8.878  0.2386 -0.1984 -0.2306
  888DECAN   C7 8867   1.869   4.832   8.919  0.1306 -0.5049  0.3649
  888DECAN   C8 8868   1.942   4.947   8.845 -0.0578 -0.7601 -0.2213
  888DECAN   C9 8869   2.094   4.932   8.867 -0.0319  0.3508  0.4440
  888DECAN  C10 8870   2.158   4.948   8.728 -0.5204  1.5800  0.3498
  889DECAN   C1 8871   4.949  10.399   6.064 -0.7361  0.0620  0.4476
  889DECAN   C2 8872   4.830  10.389   5.967 -0.2316 -0.4018 -0.1275
  889DECAN   C3 8873   4.798  10.242   5.934 -0.2624 -0.6180  0.8310
  889DECAN   C4 8874   4.694  10.217   5.823 -0.2232 -0.0900  0.6755
  889DECAN   C5 8875   4.617  10.084   5.828 -0.5114  0.0237 -0.4043
  889DECAN   C6 8876   4.501  10.075   5.728 -0.6179 -0.2352 -0.2586
  889DECAN   C7 8877   4.421   9.945   5.748 -0.2048 -0.3677  0.5609
  889DECAN   C8 8878   4.520   9.826   5.752  0.4064  0.0958 -0.2246
  889DECAN   C9 8879   4.467   9.683   5.768 -0.1585  0.2704 -0.5082
  889DECAN  C10 8880   4.575   9.574   5.770 -0.3256  0.1117  0.5928
  890DECAN   C1 8881   7.884   8.216   5.978  0.1868 -0.4612  0.2869
  890DECAN   C2 8882   7.755   8.132   5.976 -0.0185 -0.1366 -0.5233
  890DECAN   C3 8883   7.788   7.987   6.017 -0.3952 -0.3171 -0.8524
  890DECAN   C4 8884   7.678   7.881   5.997 -1.0040  0.1405 -0.0002
  890DECAN   C5 8885   7.653   7.831   5.853  0.2365  0.0794 -0.2016
  890DECAN   C6 8886   7.537   7.731   5.842  0.3813 -0.1208  0.0876
  890DECAN   C7 8887   7.397   7.793   5.851  0.4482 -0.0149  0.4378
  890DECAN   C8 8888   7.284   7.695   5.887 -0.2905  0.5315 -0.3407
  890DECAN   C9 8889   7.240   7.603   5.771 -0.3946  0.6909 -0.4278
  890DECAN  C10 8890   7.122   7.512   5.807  0.1942  0.1010  0.0415
  891DECAN   C1 8891   4.734  10.341  14.463 -0.2132 -0.5250 -0.0067
  891DECAN   C2 8892   4.581  10.336  14.445 -0.2449 -0.5659  0.2603
  891DECAN   C3 8893   4.542  10.385  14.304 -0.0732 -0.3691  0.2806
  891DECAN   C4 8894   4.428  10.310  14.234 -0.4584  0.5946 -0.1501
  891DECAN   C5 8895   4.403  10.341  14.085  0.0736  0.1749 -0.3282
  891DECAN   C6 8896   4.334  10.479  14.081  0.2489  0.2832  0.3553
  891DECAN   C7 8897   4.189  10.463  14.132  0.1480 -0.1436 -0.0579
  891DECAN   C8 8898   4.122  10.598  14.165  0.0008 -0.2349  0.0183
  891DECAN   C9 8899   3.972  10.567  14.181 -0.1180  0.4251  0.2196
  891DECAN  C10 8900   3.947  10.470  14.298  0.5206  0.0006  0.0109
  892DECAN   C1 8901   9.367   5.217   8.612  0.1672  0.1409  0.4272
  892DECAN   C2 8902   9.233   5.147   8.643  0.1770  0.0409  0.2529
  892DECAN   C3 8903   9.107   5.236   8.645 -0.0557 -0.2825  0.0192
  892DECAN   C4 8904   9.110   5.354   8.743 -0.3949 -0.2069 -0.0598
  892DECAN   C5 8905   9.108   5.318   8.893 -0.7151 -0.1205 -0.0434
  892DECAN   C6 8906   9.081   5.443   8.980  0.0696 -0.0253  0.0630
  892DECAN   C7 8907   9.087   5.409   9.131 -0.2650 -0.4742 -0.0220
  892DECAN   C8 8908   9.070   5.541   9.208 -0.0450 -0.2248 -0.3967
  892DECAN   C9 8909   9.091   5.520   9.359 -0.0223  0.2690 -0.3292
  892DECAN  C10 8910   9.216   5.443   9.405  0.2975  0.5421 -0.7304
  893DECAN   C1 8911   6.571   9.754  12.207  0.1146 -0.5072  0.4888
  893DECAN   C2 8912   6.616   9.769  12.353  0.1320 -0.4064  0.4728
  893DECAN   C3 8913   6.523   9.706  12.458 -0.3179 -0.5354  0.0021
  893DECAN   C4 8914   6.465   9.812  12.553  0.3783 -0.0545 -0.0959
  893DECAN   C5 8915   6.350   9.758  12.640 -0.1654  0.5335 -0.4386
  893DECAN   C6 8916   6.282   9.850  12.744  0.3442  0.1196  0.2678
  893DECAN   C7 8917   6.216   9.969  12.673 -0.3022 -0.2348  0.2635
  893DECAN   C8 8918   6.094  10.038  12.736 -0.1726  0.0760  0.1773
  893DECAN   C9 8919   5.983   9.931  12.741  0.0770 -0.1901  0.0358
  893DECAN  C10 8920   5.856   9.997  12.796 -0.1745 -0.6670  0.0343
  894DECAN   C1 8921   2.938   3.650  13.026  0.1640 -0.2451  0.6351
  894DECAN   C2 8922   2.941   3.722  12.889  0.5792  0.1161  0.8319
  894DECAN   C3 8923   3.004   3.861  12.873  0.4134  0.1383  0.3611
  894DECAN   C4 8924   2.920   3.983  12.916 -0.1319 -0.3703  0.7523
  894DECAN   C5 8925   2.998   4.112  12.886  0.1810 -0.6234  0.4609
  894DECAN   C6 8926   3.122   4.117  12.976  0.5611 -0.1017 -0.0824
  894DECAN   C7 8927   3.178   3.975  12.999 -0.1146 -0.3853 -0.1601
  894DECAN   C8 8928   3.319   3.967  13.062 -0.0702  0.3773 -0.1465
  894DECAN   C9 8929   3.375   3.826  13.091 -1.1904 -0.1661 -0.5329
  894DECAN  C10 8930   3.289   3.755  13.197  0.4452 -0.2599  0.7703
  895DECAN   C1 8931   4.436  10.598   4.280 -0.1266 -0.2924 -0.2726
  895DECAN   C2 8932   4.469  10.456   4.328 -0.4171 -0.1431  0.3777
  895DECAN   C3 8933   4.548  10.366   4.231 -0.6072  0.3273 -0.2188
  895DECAN   C4 8934   4.509  10.218   4.249  0.3297  0.1038  0.0209
  895DECAN   C5 8935   4.606  10.122   4.178  0.1619  0.0960 -0.2003
  895DECAN   C6 8936   4.558   9.976   4.176  0.0281  0.1272  0.4308
  895DECAN   C7 8937   4.662   9.882   4.112 -0.2619  0.1076 -0.0158
  895DECAN   C8 8938   4.625   9.733   4.096  0.5110 -0.0326 -0.5704
  895DECAN   C9 8939   4.719   9.643   4.014  0.9023 -0.1435 -0.0138
  895DECAN  C10 8940   4.684   9.494   4.029  0.1657  0.0582  0.3208
  896DECAN   C1 8941   6.675   2.952   5.946 -0.2409 -0.2064 -0.0800
  896DECAN   C2 8942   6.774   2.837   5.972 -0.0079  0.0235  0.0415
  896DECAN   C3 8943   6.890   2.821   5.873  0.4524  0.5758  0.4777
  896DECAN   C4 8944   6.986   2.709   5.920  0.1010  0.0813  0.0338
  896DECAN   C5 8945   7.064   2.642   5.805 -0.1167 -0.6111  0.2863
  896DECAN   C6 8946   7.184   2.556   5.849  0.1767 -0.3546 -0.0058
  896DECAN   C7 8947   7.284   2.530   5.736 -0.1077 -0.2699 -0.2788
  896DECAN   C8 8948   7.419   2.480   5.792 -0.2802 -0.5002 -0.0708
  896DECAN   C9 8949   7.531   2.479   5.686  0.0351  0.1529  0.2513
  896DECAN  C10 8950   7.670   2.466   5.751  0.2566 -0.4024 -0.3234
  897DECAN   C1 8951   2.198   8.192  13.389 -0.1381 -0.0569  0.3114
  897DECAN   C2 8952   2.275   8.131  13.508  0.5884 -0.1853 -0.2148
  897DECAN   C3 8953   2.211   8.016  13.588  0.3939 -0.0812 -0.2201
  897DECAN   C4 8954   2.088   8.048  13.674  0.2399 -0.2883 -0.3602
  897DECAN   C5 8955   2.014   7.914  13.690  0.2217 -0.2652 -0.2503
  897DECAN   C6 8956   1.918   7.930  13.809  0.4673  0.1406 -0.1034
  897DECAN   C7 8957   1.851   7.793  13.826 -0.3380  0.5467  0.0704
  897DECAN   C8 8958   1.746   7.802  13.938 -0.6624  0.5830 -0.2343
  897DECAN   C9 8959   1.667   7.674  13.971 -0.2367  0.4754  0.3799
  897DECAN  C10 8960   1.577   7.684  14.096  0.2357  0.9719  0.6888
  898DECAN   C1 8961   4.100   1.314  11.884 -0.1623  0.4814 -0.2994
  898DECAN   C2 8962   4.013   1.433  11.930 -0.3468  0.1234  0.2744
  898DECAN   C3 8963   4.027   1.558  11.842  0.5256  0.1397  0.4271
  898DECAN   C4 8964   3.978   1.679  11.923 -0.1543  0.0881  0.0992
  898DECAN   C5 8965   3.977   1.806  11.836  0.5319  0.0854  0.0821
  898DECAN   C6 8966   3.882   1.777  11.718  0.3326  0.1588  0.2226
  898DECAN   C7 8967   3.738   1.749  11.762  0.2207 -0.3896 -0.4816
  898DECAN   C8 8968   3.641   1.771  11.645  0.3498 -0.3147 -0.5731
  898DECAN   C9 8969   3.506   1.699  11.663  0.2318  0.0364 -0.0332
  898DECAN  C10 8970   3.410   1.726  11.546 -0.3263  0.0321  0.4202
  899DECAN   C1 8971  10.368   4.844   7.148 -0.0890  0.4899 -0.3444
  899DECAN   C2 8972  10.398   4.758   7.025 -0.1455  0.1980 -0.1541
  899DECAN   C3 8973  10.348   4.612   7.035 -0.6078  0.3674  0.0353
  899DECAN   C4 8974  10.375   4.536   6.904 -1.1130  0.2653 -0.0113
  899DECAN   C5 8975  10.317   4.393   6.901  0.2955 -0.3259  0.2553
  899DECAN   C6 8976  10.328   4.309   6.773 -0.0478  0.2855 -0.1749
  899DECAN   C7 8977  10.222   4.199   6.756 -0.1088  0.2596  0.3632
  899DECAN   C8 8978  10.219   4.117   6.626 -0.1621 -0.6945  0.9587
  899DECAN   C9 8979  10.352   4.043   6.601  0.1083  0.0359  0.1641
  899DECAN  C10 8980  10.372   4.005   6.453 -0.1111 -0.2139  0.1978
  900DECAN   C1 8981   2.892  10.418   6.595 -0.0591  0.3314 -0.1322
  900DECAN   C2 8982   2.920  10.494   6.464  0.1201 -0.1665 -0.3834
  900DECAN   C3 8983   3.072  10.502   6.439  0.1531  0.2012 -0.0721
  900DECAN   C4 8984   3.150  10.602   6.525  0.1851  0.0813  0.0402
  900DECAN   C5 8985   3.115  10.748   6.490 -0.0034 -0.0839 -0.4595
  900DECAN   C6 8986   3.234  10.843   6.513 -0.0919 -0.0249 -0.2410
  900DECAN   C7 8987   3.205  10.987   6.467  0.1412  0.1530  0.1640
  900DECAN   C8 8988   3.317  11.092   6.483  0.1035  0.3669 -0.8818
  900DECAN   C9 8989   3.272  11.239   6.480 -0.0038  0.3504 -0.2822
  900DECAN  C10 8990   3.173   0.037   6.590 -0.4492 -0.4555 -0.3690
  901DECAN   C1 8991   3.058   9.962   9.848 -0.2228 -0.0572 -0.5556
  901DECAN   C2 8992   3.025   9.858   9.740 -0.1265 -0.5861 -0.0791
  901DECAN   C3 8993   3.142   9.823   9.646 -0.2341  0.7723 -0.7497
  901DECAN   C4 8994   3.111   9.691   9.573 -0.1898  0.1621  0.3149
  901DECAN   C5 8995   2.982   9.704   9.489  0.1825  0.1306 -0.2680
  901DECAN   C6 8996   2.944   9.585   9.400  0.2981  0.1941 -0.4030
  901DECAN   C7 8997   2.840   9.615   9.290 -0.1664 -0.9900 -0.3049
  901DECAN   C8 8998   2.694   9.615   9.341 -0.0982 -0.4802 -0.1031
  901DECAN   C9 8999   2.584   9.641   9.236  0.2846  0.0554 -0.3769
  901DECAN  C10 9000   2.564   9.537   9.124  0.0187  0.1376 -0.4075
  902DECAN   C1 9001   5.274   6.693  10.175 -0.5288  0.1161  0.0095
  902DECAN   C2 9002   5.341   6.760  10.297 -0.5875  0.1866  0.0034
  902DECAN   C3 9003   5.470   6.844  10.286 -0.3284 -0.1781  0.2337
  902DECAN   C4 9004   5.574   6.768  10.202 -0.0760 -0.3125  0.6605
  902DECAN   C5 9005   5.708   6.842  10.187 -0.4511  0.3188  0.3646
  902DECAN   C6 9006   5.798   6.769  10.085 -0.6190 -0.1947  0.5802
  902DECAN   C7 9007   5.744   6.756   9.941 -0.0685  0.0129  0.3528
  902DECAN   C8 9008   5.858   6.727   9.841 -0.3795  0.0944 -0.0233
  902DECAN   C9 9009   5.952   6.841   9.797 -0.1699 -0.1601 -0.2352
  902DECAN  C10 9010   6.076   6.788   9.723  0.0178 -0.1235  0.0516
  903DECAN   C1 9011   7.468   0.098   9.222  0.4580 -0.1358  0.0813
  903DECAN   C2 9012   7.486   0.079   9.070 -0.1128 -0.4008  0.0465
  903DECAN   C3 9013   7.463  11.179   9.022  0.4682 -0.8133  0.9936
  903DECAN   C4 9014   7.466  11.181   8.868  0.1840  0.9113  0.9973
  903DECAN   C5 9015   7.595  11.244   8.813  0.0289  0.5133  0.1658
  903DECAN   C6 9016   7.604  11.223   8.661 -0.0502  0.5438  0.1570
  903DECAN   C7 9017   7.718  11.130   8.617 -0.4241 -0.0512  0.4353
  903DECAN   C8 9018   7.713  11.089   8.469  0.3635  0.0412  0.3786
  903DECAN   C9 9019   7.785  10.954   8.451 -0.0948 -0.1219 -0.2478
  903DECAN  C10 9020   7.775  10.903   8.306  0.0524 -0.1573 -0.2461
  904DECAN   C1 9021  10.181  10.939   9.266 -0.0364 -0.1446 -0.6322
  904DECAN   C2 9022  10.313  10.998   9.319 -0.5440  0.1201  0.3643
  904DECAN   C3 9023  10.314  11.152   9.306  0.1399  0.0589 -0.3730
  904DECAN   C4 9024  10.448  11.220   9.338  0.0657 -0.1864  0.4940
  904DECAN   C5 9025  10.442   0.126   9.302 -0.1313 -0.3251 -0.0645
  904DECAN   C6 9026  10.564   0.211   9.343 -0.2870 -0.1509  0.0369
  904DECAN   C7 9027  10.537   0.363   9.351 -0.3528 -0.1608  0.0043
  904DECAN   C8 9028  10.656   0.453   9.390 -0.1469 -0.3571 -0.1629
  904DECAN   C9 9029  10.614   0.600   9.407  0.3603 -0.2296  0.0038
  904DECAN  C10 9030  10.731   0.692   9.447  0.6657 -0.5593 -0.1273
  905DECAN   C1 9031   3.922  10.599   5.879  0.3218  0.8442 -0.1210
  905DECAN   C2 9032   3.951  10.582   5.729 -0.4464 -0.8951 -0.1020
  905DECAN   C3 9033   3.825  10.561   5.643 -0.2193  0.0371 -0.6771
  905DECAN   C4 9034   3.721  10.669   5.676  0.1169  0.1848 -0.0973
  905DECAN   C5 9035   3.653  10.657   5.814  0.1164  0.3706 -0.0812
  905DECAN   C6 9036   3.567  10.783   5.836 -0.2378  0.1529 -0.2009
  905DECAN   C7 9037   3.451  10.763   5.935  0.2351 -0.0593  0.3167
  905DECAN   C8 9038   3.494  10.673   6.053  0.1001 -0.0054  0.4073
  905DECAN   C9 9039   3.389  10.656   6.165 -0.1238 -0.2062  0.1682
  905DECAN  C10 9040   3.243  10.630   6.124 -0.1105  0.1371 -0.1009
  906DECAN   C1 9041  10.797   9.206   9.498  0.2906 -0.2955  0.2020
  906DECAN   C2 9042  10.716   9.290   9.398  0.1198 -0.2989  0.3365
  906DECAN   C3 9043  10.567   9.275   9.432 -0.0047 -0.0803 -0.0969
  906DECAN   C4 9044  10.469   9.321   9.323  0.1957  0.8220  0.0879
  906DECAN   C5 9045  10.320   9.298   9.355  0.2679 -0.7779 -0.5942
  906DECAN   C6 9046  10.231   9.373   9.254 -0.6306 -0.6911  0.2466
  906DECAN   C7 9047  10.198   9.300   9.122  0.1283 -0.0253 -0.3186
  906DECAN   C8 9048  10.083   9.200   9.144 -0.6093  0.7999 -0.3700
  906DECAN   C9 9049  10.041   9.129   9.014 -0.4102  0.3388 -0.1866
  906DECAN  C10 9050   9.944   9.010   9.025  0.2827 -0.2059  0.0806
  907DECAN   C1 9051   8.479   2.262  11.345  0.0855  0.3366  0.2436
  907DECAN   C2 9052   8.421   2.235  11.205  0.0648  0.6556  0.1899
  907DECAN   C3 9053   8.529   2.225  11.096  0.0447  0.0204  0.2196
  907DECAN   C4 9054   8.456   2.229  10.960  0.0117 -0.7678  0.2142
  907DECAN   C5 9055   8.392   2.364  10.923  0.4668 -0.6722 -0.2263
  907DECAN   C6 9056   8.316   2.357  10.789 -0.1119  0.5114  0.0353
  907DECAN   C7 9057   8.189   2.271  10.781  0.2396  0.0300 -0.4286
  907DECAN   C8 9058   8.122   2.279  10.642 -0.1461  0.3757 -0.2227
  907DECAN   C9 9059   8.013   2.175  10.612 -0.0057  0.1263  0.1325
  907DECAN  C10 9060   7.994   2.172  10.460  0.4697  0.5838  0.0618
  908DECAN   C1 9061   6.073   9.639   6.980 -0.4817  0.1708 -0.1280
  908DECAN   C2 9062   6.031   9.592   6.839 -0.1647  0.2891 -0.2623
  908DECAN   C3 9063   5.997   9.706   6.742 -0.3258  0.2123 -0.2963
  908DECAN   C4 9064   5.886   9.650   6.651 -0.1170 -0.4120 -0.1700
  908DECAN   C5 9065   5.830   9.760   6.559  0.3040  0.0191  0.0818
  908DECAN   C6 9066   5.726   9.714   6.455  0.2488  0.1341  0.0861
  908DECAN   C7 9067   5.792   9.628   6.346  0.1362  0.0310  0.0993
  908DECAN   C8 9068   5.680   9.589   6.248  0.1686  0.2458 -0.0233
  908DECAN   C9 9069   5.737   9.503   6.133  0.3327 -0.6009  0.6772
  908DECAN  C10 9070   5.636   9.509   6.017 -0.2058  0.2230  1.1810
  909DECAN   C1 9071  10.356   6.433  14.143 -0.7961  0.5783  0.1492
  909DECAN   C2 9072  10.322   6.333  14.031 -0.7914  0.1100  0.5628
  909DECAN   C3 9073  10.326   6.183  14.065  0.1209 -0.0156 -0.0538
  909DECAN   C4 9074  10.223   6.147  14.174  0.0507  0.3789  0.0111
  909DECAN   C5 9075  10.231   6.240  14.296 -0.3448  0.1723  0.1980
  909DECAN   C6 9076  10.116   6.225  14.397 -0.3171 -0.3808  0.1515
  909DECAN   C7 9077  10.103   6.337  14.503  0.0466 -0.2112  0.0179
  909DECAN   C8 9078   9.997   6.327  14.614  0.0375  0.5205  0.0809
  909DECAN   C9 9079   9.860   6.376  14.564 -0.2619 -0.4815 -0.1135
  909DECAN  C10 9080   9.745   6.333  14.657 -0.2003 -0.0745  0.1514
  910DECAN   C1 9081   6.153   8.883  13.288  0.1515 -0.0886 -0.5790
  910DECAN   C2 9082   6.259   8.774  13.264  0.0883 -0.3049  0.1124
  910DECAN   C3 9083   6.404   8.803  13.306  0.0992 -0.1471 -0.0330
  910DECAN   C4 9084   6.508   8.691  13.286  0.1498 -0.1291  0.1279
  910DECAN   C5 9085   6.583   8.691  13.151 -0.2848 -0.4993 -0.1162
  910DECAN   C6 9086   6.694   8.586  13.129 -0.1926 -0.4028 -0.1105
  910DECAN   C7 9087   6.652   8.442  13.162 -0.6164 -0.3182 -0.2652
  910DECAN   C8 9088   6.653   8.411  13.313  0.3738  0.3858 -0.1204
  910DECAN   C9 9089   6.618   8.263  13.339  0.4055  0.2869 -0.6357
  910DECAN  C10 9090   6.479   8.222  13.287 -0.0259  0.3820  0.4269
  911DECAN   C1 9091   1.208   3.949   8.786  0.0346 -0.1107 -0.3374
  911DECAN   C2 9092   1.233   3.798   8.772  0.1215 -0.1262 -0.0173
  911DECAN   C3 9093   1.291   3.733   8.899 -0.7523 -0.2533  0.3254
  911DECAN   C4 9094   1.433   3.782   8.930 -0.3870 -1.3435  0.4425
  911DECAN   C5 9095   1.488   3.729   9.063  0.2630 -0.2421  0.6301
  911DECAN   C6 9096   1.631   3.773   9.101  0.4647 -0.2564 -0.0909
  911DECAN   C7 9097   1.665   3.747   9.249  0.1770  0.2470  0.0673
  911DECAN   C8 9098   1.814   3.776   9.277  0.0527  0.4626  0.5265
  911DECAN   C9 9099   1.847   3.717   9.415 -0.3920 -0.0054  0.4383
  911DECAN  C10 9100   1.989   3.769   9.443 -0.5742  0.4988  0.4409
  912DECAN   C1 9101   5.061   0.618  13.462  0.2237 -0.1487  0.4063
  912DECAN   C2 9102   4.997   0.700  13.575  0.6724 -0.2178  0.7131
  912DECAN   C3 9103   5.075   0.685  13.707  0.3778 -1.0114  0.8015
  912DECAN   C4 9104   5.011   0.774  13.815 -0.0192  0.3020 -0.4955
  912DECAN   C5 9105   5.075   0.793  13.954 -0.2540  0.2077 -0.3748
  912DECAN   C6 9106   4.996   0.882  14.052  0.3256  0.2525  0.0573
  912DECAN   C7 9107   5.050   0.875  14.196  0.1614 -0.2431  0.0979
  912DECAN   C8 9108   4.978   0.955  14.305  0.5295  0.1703  0.0451
  912DECAN   C9 9109   5.009   1.105  14.311 -0.0030  0.2570  0.8433
  912DECAN  C10 9110   4.924   1.199  14.400 -0.7374  0.0174  0.4058
  913DECAN   C1 9111   2.477   5.181  11.309  0.2694  0.4322  0.0919
  913DECAN   C2 9112   2.376   5.233  11.204 -0.2696  0.5680  0.6727
  913DECAN   C3 9113   2.359   5.144  11.080 -0.1128  0.7286  0.5362
  913DECAN   C4 9114   2.244   5.175  10.982  0.5090 -0.2753 -0.5431
  913DECAN   C5 9115   2.259   5.308  10.907 -0.2644  0.5316  0.6866
  913DECAN   C6 9116   2.167   5.313  10.783  1.0078 -0.2420 -0.3213
  913DECAN   C7 9117   2.165   5.451  10.714  0.3447  0.0093  0.1840
  913DECAN   C8 9118   2.059   5.542  10.778  0.0199 -0.3577  0.1765
  913DECAN   C9 9119   2.072   5.551  10.932 -0.4763 -0.1669  0.2080
  913DECAN  C10 9120   2.030   5.679  11.006  0.7878  0.3507  0.0643
  914DECAN   C1 9121   8.959   8.457  12.365  0.3422  0.5057 -0.0471
  914DECAN   C2 9122   9.041   8.327  12.372 -0.0403  0.2828  0.3761
  914DECAN   C3 9123   9.187   8.365  12.402  0.0048  0.1093  0.3801
  914DECAN   C4 9124   9.219   8.410  12.546 -0.0767 -0.0157  0.4378
  914DECAN   C5 9125   9.210   8.562  12.573 -0.5127  0.0058  0.1750
  914DECAN   C6 9126   9.244   8.614  12.714 -0.3427 -0.2843  0.2416
  914DECAN   C7 9127   9.167   8.546  12.829 -0.2427  0.5844  0.8260
  914DECAN   C8 9128   9.017   8.575  12.812 -0.3218 -0.3778 -0.2266
  914DECAN   C9 9129   8.919   8.531  12.922  0.1809 -0.2522  0.2735
  914DECAN  C10 9130   8.936   8.594  13.062 -0.0891 -0.3617  0.3556
  915DECAN   C1 9131   6.343   6.443  12.624 -0.0441  0.0218 -0.0840
  915DECAN   C2 9132   6.287   6.321  12.698  0.1547  0.3468  0.6092
  915DECAN   C3 9133   6.177   6.244  12.623  0.3635  0.6500 -0.0086
  915DECAN   C4 9134   6.050   6.331  12.627  0.0360  0.1560  0.4374
  915DECAN   C5 9135   5.920   6.263  12.580  0.1906  0.1491  0.0165
  915DECAN   C6 9136   5.794   6.351  12.591  0.0937  0.0179 -0.0258
  915DECAN   C7 9137   5.664   6.286  12.541 -0.2241  0.2549  0.4823
  915DECAN   C8 9138   5.545   6.381  12.520 -0.1885  0.2830  0.4120
  915DECAN   C9 9139   5.420   6.305  12.473  0.3671 -0.2067 -0.3023
  915DECAN  C10 9140   5.281   6.362  12.508  0.3787 -0.0173 -0.5592
  916DECAN   C1 9141   4.318   3.026  14.609 -0.0523 -0.0654 -0.4485
  916DECAN   C2 9142   4.426   3.100  14.692  0.3449 -0.7151 -0.3779
  916DECAN   C3 9143   4.467   3.236  14.632 -0.1445 -0.6846 -0.6497
  916DECAN   C4 9144   4.356   3.342  14.641  0.5005 -0.0917  0.4687
  916DECAN   C5 9145   4.400   3.481  14.592  0.1646 -0.3583 -0.6135
  916DECAN   C6 9146   4.496   3.536  14.699 -0.3637  0.2893 -0.4597
  916DECAN   C7 9147   4.561   3.672  14.668  0.8749 -0.2309 -0.2393
  916DECAN   C8 9148   4.677   3.707  14.762  0.8627  0.3749 -0.4447
  916DECAN   C9 9149   4.711   3.857  14.755 -0.3846  0.7038  0.1895
  916DECAN  C10 9150   4.786   3.908  14.630  0.2325  0.3643  0.4160
  917DECAN   C1 9151   5.948   7.798  11.948 -0.1028 -0.1333 -0.4592
  917DECAN   C2 9152   5.902   7.793  11.801 -0.5342 -0.4390 -0.3167
  917DECAN   C3 9153   5.985   7.878  11.702  0.0945 -0.5997  0.0632
  917DECAN   C4 9154   6.130   7.833  11.681  0.3265 -0.0217  0.4143
  917DECAN   C5 9155   6.216   7.939  11.611 -0.4265 -0.3259 -0.9985
  917DECAN   C6 9156   6.355   7.902  11.557  0.1676  0.3911  0.0083
  917DECAN   C7 9157   6.410   8.014  11.466  0.0887  0.3553 -0.0848
  917DECAN   C8 9158   6.544   7.981  11.397  0.2430 -0.0976  0.4195
  917DECAN   C9 9159   6.598   8.096  11.310  0.0755 -0.3913 -0.0740
  917DECAN  C10 9160   6.744   8.074  11.266  0.1679  0.2296 -0.0888
  918DECAN   C1 9161   5.424   1.097  13.136  0.4410  0.2099  0.5795
  918DECAN   C2 9162   5.278   1.077  13.091  0.7492 -0.2503 -0.2383
  918DECAN   C3 9163   5.187   1.048  13.212  0.1907  0.6995 -0.4198
  918DECAN   C4 9164   5.212   1.150  13.324 -0.2769  0.5417 -0.1699
  918DECAN   C5 9165   5.360   1.157  13.369 -0.3531  0.3006  0.1235
  918DECAN   C6 9166   5.377   1.233  13.501 -0.1915  0.1257  0.2045
  918DECAN   C7 9167   5.314   1.153  13.617  0.0463  0.2120  0.3918
  918DECAN   C8 9168   5.282   1.241  13.740 -0.6134  0.1176  0.2887
  918DECAN   C9 9169   5.247   1.157  13.864 -0.1674 -0.0921  0.2714
  918DECAN  C10 9170   5.223   1.224  14.000 -0.1180  0.1638  0.1547
  919DECAN   C1 9171   4.955   1.984  14.008 -0.4710 -0.5582 -0.0491
  919DECAN   C2 9172   5.069   1.993  14.110 -0.2080 -0.7222 -0.3262
  919DECAN   C3 9173   5.003   2.013  14.248  0.4919 -0.0216 -0.0790
  919DECAN   C4 9174   5.101   2.052  14.359  0.7029  0.2269 -0.3533
  919DECAN   C5 9175   5.202   1.944  14.403  0.0647 -0.1961  0.0829
  919DECAN   C6 9176   5.292   1.980  14.522 -0.2921 -0.4183  0.4244
  919DECAN   C7 9177   5.367   1.863  14.588 -0.0174 -0.2744  0.3691
  919DECAN   C8 9178   5.483   1.811  14.501  0.0233 -0.3646  0.4770
  919DECAN   C9 9179   5.584   1.720  14.574 -0.0474 -0.2327  0.7395
  919DECAN  C10 9180   5.690   1.654  14.485 -0.8692 -0.6356  0.0450
  920DECAN   C1 9181   8.403   5.474  11.108 -0.0476  0.2172 -0.0982
  920DECAN   C2 9182   8.450   5.620  11.095  0.4181  0.1023  0.2735
  920DECAN   C3 9183   8.328   5.714  11.099  0.0328 -0.3847  0.1044
  920DECAN   C4 9184   8.368   5.861  11.121  0.3486 -0.5081  0.3476
  920DECAN   C5 9185   8.236   5.939  11.129  0.4124 -0.3236 -0.3164
  920DECAN   C6 9186   8.160   5.946  11.263  0.2317 -0.1443 -0.4273
  920DECAN   C7 9187   8.043   6.045  11.270  0.0171 -0.4260  0.0360
  920DECAN   C8 9188   8.077   6.193  11.246 -0.1116 -0.3815  0.1226
  920DECAN   C9 9189   7.958   6.290  11.240  0.5312  0.4760  0.7572
  920DECAN  C10 9190   7.887   6.315  11.374 -0.5744 -0.2855  0.3385
  921DECAN   C1 9191  10.573   6.289   8.876 -0.6665 -0.5258  0.3358
  921DECAN   C2 9192  10.696   6.289   8.969 -0.3831  0.2789 -0.0364
  921DECAN   C3 9193  10.754   6.423   9.019  0.0826 -0.0634  0.3497
  921DECAN   C4 9194  10.749   6.535   8.913  0.3185 -0.0596  0.3407
  921DECAN   C5 9195  10.771   6.674   8.976 -0.2327  0.2168 -0.0656
  921DECAN   C6 9196  10.771   6.794   8.880  0.1930  0.3601  0.1095
  921DECAN   C7 9197  10.788   6.923   8.962 -0.2963  0.6397 -0.2284
  921DECAN   C8 9198  10.779   7.047   8.871  0.7000  0.5973 -0.3950
  921DECAN   C9 9199  10.756   7.179   8.948  0.2140  0.2697  0.0309
  921DECAN  C10 9200  10.764   7.312   8.870  0.4572  0.1959 -0.0715
  922DECAN   C1 9201   2.967   2.565   7.902 -0.1218 -0.1562  0.4299
  922DECAN   C2 9202   3.108   2.616   7.940  0.2067 -0.5386 -0.2633
  922DECAN   C3 9203   3.178   2.503   8.017  0.5900  0.1553  0.4081
  922DECAN   C4 9204   3.272   2.414   7.933  0.2852  0.1039  0.1192
  922DECAN   C5 9205   3.358   2.479   7.823  0.4111 -0.4147 -0.0881
  922DECAN   C6 9206   3.420   2.370   7.734 -0.0865 -0.8697  0.1178
  922DECAN   C7 9207   3.530   2.429   7.644 -0.2095 -0.4482  0.2450
  922DECAN   C8 9208   3.584   2.351   7.523 -0.1824  0.3062 -0.2347
  922DECAN   C9 9209   3.723   2.396   7.475 -0.0987  0.0013 -0.2780
  922DECAN  C10 9210   3.837   2.402   7.578 -0.5337 -0.1813  0.2174
  923DECAN   C1 9211   3.215  10.605  13.961 -0.2272 -0.1050  0.2650
  923DECAN   C2 9212   3.079  10.532  13.958 -0.2753 -0.0056 -0.0985
  923DECAN   C3 9213   3.062  10.454  14.090 -0.5113  0.0330 -0.1053
  923DECAN   C4 9214   2.994  10.316  14.081  0.1701 -0.3557  0.5124
  923DECAN   C5 9215   2.938  10.250  14.208  0.0550 -0.4799  0.3985
  923DECAN   C6 9216   2.837  10.136  14.189 -0.1870 -0.1494 -0.3120
  923DECAN   C7 9217   2.752  10.096  14.311  0.4733  0.0452  0.2124
  923DECAN   C8 9218   2.658  10.206  14.364  0.0028 -0.1310 -0.2489
  923DECAN   C9 9219   2.587  10.172  14.497 -0.2839  0.0634 -0.3519
  923DECAN  C10 9220   2.494  10.050  14.498  0.3877 -0.4456 -0.0403
  924DECAN   C1 9221   4.581   2.164  10.494 -0.3437 -0.0286 -0.3316
  924DECAN   C2 9222   4.684   2.092  10.405  0.0877 -0.1020  0.2221
  924DECAN   C3 9223   4.820   2.165  10.394 -0.2614  0.5067 -0.1055
  924DECAN   C4 9224   4.904   2.093  10.288 -0.4396 -0.7647  0.5961
  924DECAN   C5 9225   5.053   2.131  10.301 -0.4811 -0.4984  0.3080
  924DECAN   C6 9226   5.097   2.105  10.446  0.2678 -0.5281  0.0754
  924DECAN   C7 9227   5.247   2.119  10.481  0.1972 -0.1306  0.2269
  924DECAN   C8 9228   5.348   2.043  10.392 -0.0240 -0.1201 -0.0369
  924DECAN   C9 9229   5.496   2.050  10.435  0.0141 -0.4060 -0.1180
  924DECAN  C10 9230   5.585   1.944  10.369  0.5328  0.2774 -0.5344
  925DECAN   C1 9231   2.886   1.287  10.907 -0.0363  0.1388 -0.3678
  925DECAN   C2 9232   2.867   1.439  10.916  0.2550  0.1086  1.1984
  925DECAN   C3 9233   2.722   1.466  10.959 -0.2190 -0.0466 -0.2428
  925DECAN   C4 9234   2.693   1.608  11.013 -0.2920 -0.4490  0.7964
  925DECAN   C5 9235   2.691   1.721  10.909 -0.0779 -0.4106  0.8322
  925DECAN   C6 9236   2.687   1.855  10.985 -0.3450 -0.1060  0.2902
  925DECAN   C7 9237   2.632   1.973  10.903  0.4830  0.1495  0.0942
  925DECAN   C8 9238   2.708   1.994  10.770  0.1833  0.1530 -0.0783
  925DECAN   C9 9239   2.683   2.129  10.702 -0.2139  0.0468 -0.1461
  925DECAN  C10 9240   2.791   2.158  10.595 -0.4498  0.3504 -0.3057
  926DECAN   C1 9241   4.951   1.119  11.419  0.6206  0.4422 -0.1585
  926DECAN   C2 9242   4.831   1.184  11.347  0.0246 -0.1747  0.2744
  926DECAN   C3 9243   4.700   1.104  11.360 -0.1315  0.0620  0.1546
  926DECAN   C4 9244   4.733   0.954  11.348 -0.0713  0.0915 -0.0522
  926DECAN   C5 9245   4.786   0.913  11.209 -0.6089 -0.0550 -0.2216
  926DECAN   C6 9246   4.689   0.946  11.094 -0.3925  0.4055 -0.2767
  926DECAN   C7 9247   4.746   0.899  10.959 -0.4548  0.3399 -0.2795
  926DECAN   C8 9248   4.638   0.899  10.849 -0.1253  0.3022 -0.6082
  926DECAN   C9 9249   4.710   0.851  10.722  0.1384  0.3712 -0.4857
  926DECAN  C10 9250   4.837   0.937  10.710 -0.1685  0.9155  0.1163
  927DECAN   C1 9251   4.147   1.399  10.449 -0.2555 -0.0666  0.1009
  927DECAN   C2 9252   4.042   1.437  10.342 -0.2625  0.0934  0.1656
  927DECAN   C3 9253   3.900   1.402  10.389 -0.1928  0.2655  0.5175
  927DECAN   C4 9254   3.780   1.450  10.305 -0.0325  0.3312  0.3252
  927DECAN   C5 9255   3.653   1.433  10.391 -0.2478 -0.3880 -0.1320
  927DECAN   C6 9256   3.514   1.453  10.329 -0.0372  0.1211 -0.4414
  927DECAN   C7 9257   3.497   1.602  10.293 -0.2055  0.1323 -0.3166
  927DECAN   C8 9258   3.417   1.631  10.165 -0.1540 -0.3882 -0.4666
  927DECAN   C9 9259   3.400   1.780  10.130 -0.1117 -0.3318 -0.2460
  927DECAN  C10 9260   3.313   1.797  10.005 -0.2299  0.1021 -0.1039
  928DECAN   C1 9261   8.837   9.228  13.661  0.0892 -0.3780 -0.1453
  928DECAN   C2 9262   8.726   9.293  13.576  0.4669  0.4737  0.0080
  928DECAN   C3 9263   8.615   9.191  13.548  0.2475  0.6496  0.2363
  928DECAN   C4 9264   8.502   9.243  13.456  0.4808  0.5480 -0.1088
  928DECAN   C5 9265   8.395   9.134  13.445  0.3458  0.7293 -0.6337
  928DECAN   C6 9266   8.320   9.093  13.574  0.3144  0.3656 -0.7670
  928DECAN   C7 9267   8.189   9.020  13.542  0.5105  0.1200 -1.0203
  928DECAN   C8 9268   8.216   8.881  13.482  0.1729 -0.2567 -0.3051
  928DECAN   C9 9269   8.087   8.812  13.433 -0.2174  0.4521 -0.2807
  928DECAN  C10 9270   8.025   8.893  13.318 -0.4628  0.4162 -0.1733
  929DECAN   C1 9271   2.742   7.920   7.312  0.7735  0.4172  0.0571
  929DECAN   C2 9272   2.659   7.856   7.424  0.3483  0.7524 -0.0615
  929DECAN   C3 9273   2.556   7.748   7.385  0.4129  0.8179 -0.4072
  929DECAN   C4 9274   2.614   7.609   7.353  0.1399  0.5069  0.4230
  929DECAN   C5 9275   2.509   7.507   7.305  0.1462  0.3619  0.7207
  929DECAN   C6 9276   2.558   7.362   7.284 -0.2062  0.3331  0.0769
  929DECAN   C7 9277   2.469   7.283   7.187  0.5724  0.1462 -0.4996
  929DECAN   C8 9278   2.508   7.143   7.137  0.3631  0.0881 -0.5035
  929DECAN   C9 9279   2.405   7.052   7.069  0.2550 -0.5357  0.4747
  929DECAN  C10 9280   2.343   7.112   6.942  0.6072 -0.3361  0.3966
  930DECAN   C1 9281   7.598  10.679  10.615  0.2721 -0.1227  0.1777
  930DECAN   C2 9282   7.632  10.713  10.469  0.3719  0.5863  0.3629
  930DECAN   C3 9283   7.771  10.654  10.435  0.1177  0.0405  0.2601
  930DECAN   C4 9284   7.764  10.563  10.311 -0.1740  0.4545 -0.0314
  930DECAN   C5 9285   7.903  10.529  10.255 -0.1446  0.0663  0.2728
  930DECAN   C6 9286   7.890  10.453  10.122 -0.1649  0.1467  0.2282
  930DECAN   C7 9287   7.851  10.545  10.005  0.6745  0.1740 -0.0390
  930DECAN   C8 9288   7.816  10.471   9.874 -0.0344  0.1634  0.1532
  930DECAN   C9 9289   7.788  10.550   9.745  0.1534  0.6153  0.3866
  930DECAN  C10 9290   7.754  10.477   9.613  0.6814 -0.0603  0.6135
  931DECAN   C1 9291   8.565   3.204  14.361  0.3626 -0.3543 -0.1171
  931DECAN   C2 9292   8.567   3.066  14.430 -0.2554 -0.2661  0.0925
  931DECAN   C3 9293   8.708   3.022  14.474 -0.1230 -0.1065 -0.1684
  931DECAN   C4 9294   8.705   2.896  14.562  0.0634 -0.3784 -0.5502
  931DECAN   C5 9295   8.852   2.864  14.596 -0.0919  0.0953  0.6148
  931DECAN   C6 9296   8.950   2.982  14.588  0.0602 -0.0834 -0.2677
  931DECAN   C7 9297   9.095   2.930  14.591  0.0789  0.0033  0.3830
  931DECAN   C8 9298   9.201   3.037  14.561 -0.4716  0.2201 -0.8393
  931DECAN   C9 9299   9.343   2.978  14.557 -0.1556  0.8686  0.2946
  931DECAN  C10 9300   9.388   2.897  14.680 -0.0930  0.5417  0.0585
  932DECAN   C1 9301   4.970   6.703   4.242  0.4809 -0.3996  0.4204
  932DECAN   C2 9302   4.935   6.712   4.092 -0.1627  0.3210  0.6086
  932DECAN   C3 9303   4.822   6.611   4.066  0.2245  0.0393 -0.0069
  932DECAN   C4 9304   4.763   6.628   3.925  0.6287  0.7129 -0.0993
  932DECAN   C5 9305   4.697   6.767   3.916  0.1276  0.4783 -0.1118
  932DECAN   C6 9306   4.798   6.883   3.929  0.1559  0.4563 -0.1313
  932DECAN   C7 9307   4.736   7.021   3.900 -0.3782  0.2093 -0.1810
  932DECAN   C8 9308   4.833   7.141   3.905 -0.0915 -0.0382  0.2470
  932DECAN   C9 9309   4.774   7.269   3.843  0.5062  0.0286 -0.1941
  932DECAN  C10 9310   4.853   7.397   3.878 -0.1717  0.2405  0.5857
  933DECAN   C1 9311   2.943   7.476  13.510 -0.5169  0.0072 -0.2934
  933DECAN   C2 9312   2.896   7.525  13.372 -0.5671  0.1133 -0.2391
  933DECAN   C3 9313   2.806   7.425  13.296 -0.8380 -0.3015  0.6101
  933DECAN   C4 9314   2.738   7.521  13.196  0.1066  0.0251  0.2722
  933DECAN   C5 9315   2.634   7.442  13.114  0.0269 -0.1096  0.5050
  933DECAN   C6 9316   2.585   7.529  12.997  0.3140 -0.5130  0.0792
  933DECAN   C7 9317   2.494   7.443  12.908 -0.0209 -0.0653 -0.0143
  933DECAN   C8 9318   2.350   7.442  12.961 -0.1680 -0.0360 -0.4110
  933DECAN   C9 9319   2.272   7.344  12.871  0.6986 -0.7878 -0.3518
  933DECAN  C10 9320   2.327   7.201  12.858  0.5358 -0.7983 -0.9532
  934DECAN   C1 9321  10.449   5.185  12.201 -0.1553 -0.1367 -0.2174
  934DECAN   C2 9322  10.591   5.145  12.246 -0.3281 -0.5972 -0.0766
  934DECAN   C3 9323  10.688   5.261  12.277 -0.4594 -0.4644 -0.1656
  934DECAN   C4 9324  10.629   5.353  12.385 -0.2786 -0.1516 -0.3321
  934DECAN   C5 9325  10.717   5.477  12.411  0.0433 -0.5368  0.4685
  934DECAN   C6 9326  10.653   5.602  12.474  0.1580 -0.2260 -0.0256
  934DECAN   C7 9327  10.750   5.720  12.458  0.3377 -0.3146  0.4045
  934DECAN   C8 9328  10.761   5.783  12.318  0.4094 -0.2778  0.4271
  934DECAN   C9 9329  10.880   5.877  12.292  0.3174 -0.4068 -0.4677
  934DECAN  C10 9330  10.857   5.948  12.157 -0.2867  0.5932  0.1505
  935DECAN   C1 9331  10.828   7.658  12.878  0.0478 -0.1012  0.4409
  935DECAN   C2 9332  10.822   7.773  12.981  0.0585 -0.1420  0.4867
  935DECAN   C3 9333  10.704   7.778  13.080 -0.2992 -0.2912  0.0716
  935DECAN   C4 9334  10.603   7.888  13.043 -0.1387 -0.1923 -0.0777
  935DECAN   C5 9335  10.498   7.902  13.155  0.4470  0.4976  0.3960
  935DECAN   C6 9336  10.377   7.990  13.122 -0.2532 -0.5508  0.0979
  935DECAN   C7 9337  10.268   7.994  13.231 -0.1362  0.3139  0.1938
  935DECAN   C8 9338  10.135   8.060  13.189 -0.1558 -0.1628 -0.5123
  935DECAN   C9 9339  10.027   8.037  13.297 -0.1336  0.4858 -0.3421
  935DECAN  C10 9340   9.899   8.118  13.272 -0.3544  0.4059  0.5308
  936DECAN   C1 9341  10.232   8.414  13.134 -0.2997  0.1674  0.1753
  936DECAN   C2 9342  10.362   8.495  13.124  0.1323 -0.5741 -0.3022
  936DECAN   C3 9343  10.428   8.490  13.262 -0.0596  0.0359 -0.1844
  936DECAN   C4 9344  10.556   8.570  13.292 -0.0063  0.0313 -0.4008
  936DECAN   C5 9345  10.543   8.719  13.255 -0.1947  0.1828  0.2676
  936DECAN   C6 9346  10.674   8.800  13.259  0.1218 -0.3270  0.2366
  936DECAN   C7 9347  10.655   8.946  13.213  0.5471 -0.2509  0.2952
  936DECAN   C8 9348  10.570   9.036  13.305  0.1867  0.2552 -0.5247
  936DECAN   C9 9349  10.572   9.187  13.277 -0.3220  0.1810 -0.9777
  936DECAN  C10 9350  10.473   9.266  13.365  0.2639  0.0069 -0.1491
  937DECAN   C1 9351   4.412   8.380  10.580  0.3157 -0.1427  0.6841
  937DECAN   C2 9352   4.374   8.237  10.621 -0.4843  0.0916  0.7711
  937DECAN   C3 9353   4.476   8.176  10.718 -0.0610 -0.7093 -0.1576
  937DECAN   C4 9354   4.457   8.024  10.733 -0.1471 -0.7148 -0.3246
  937DECAN   C5 9355   4.569   7.967  10.823 -0.1001 -0.5526 -0.2795
  937DECAN   C6 9356   4.562   7.813  10.818  0.6290 -0.5695 -0.8490
  937DECAN   C7 9357   4.678   7.748  10.894  0.4266  0.3168  0.2386
  937DECAN   C8 9358   4.685   7.600  10.853 -0.8214  0.1454  0.6247
  937DECAN   C9 9359   4.753   7.504  10.953  0.7368 -0.1447 -0.6749
  937DECAN  C10 9360   4.725   7.359  10.910 -0.7020 -0.0540 -0.1052
  938DECAN   C1 9361   9.413   5.218   4.922 -0.0724  0.5099  0.3262
  938DECAN   C2 9362   9.296   5.239   5.020  0.0365  0.2387  0.5143
  938DECAN   C3 9363   9.260   5.383   5.060  0.0631  0.3102  0.2826
  938DECAN   C4 9364   9.114   5.402   5.107 -0.0148  0.2085  0.0817
  938DECAN   C5 9365   9.076   5.341   5.243 -0.2257  0.1130 -0.0195
  938DECAN   C6 9366   9.062   5.188   5.251 -0.5973  0.1500  0.0186
  938DECAN   C7 9367   9.026   5.123   5.386 -0.2307 -0.0930 -0.0014
  938DECAN   C8 9368   9.124   5.179   5.491 -0.0622 -0.2852 -0.0533
  938DECAN   C9 9369   9.110   5.113   5.629 -0.4177 -0.2994 -0.0948
  938DECAN  C10 9370   9.223   5.159   5.723 -1.1367  0.1762  0.5618
  939DECAN   C1 9371   7.554   8.316  11.168 -0.1763 -0.6140  0.0543
  939DECAN   C2 9372   7.476   8.333  11.036 -0.2371 -0.5795  0.0933
  939DECAN   C3 9373   7.518   8.458  10.957 -0.5234 -0.4402  0.1629
  939DECAN   C4 9374   7.472   8.591  11.019  0.3308  0.1195 -0.3865
  939DECAN   C5 9375   7.533   8.626  11.156 -0.7176  0.4580 -0.0013
  939DECAN   C6 9376   7.503   8.770  11.203 -0.2245  0.4694  0.2822
  939DECAN   C7 9377   7.581   8.878  11.125  0.0800 -0.3001 -0.4964
  939DECAN   C8 9378   7.594   9.001  11.217  0.4909 -0.4451 -0.3610
  939DECAN   C9 9379   7.691   8.974  11.334 -0.0932 -0.0961  0.2162
  939DECAN  C10 9380   7.835   8.967  11.280 -0.1910 -0.1582 -0.0402
  940DECAN   C1 9381   5.706   1.126  12.258  0.1516  0.2675  0.2804
  940DECAN   C2 9382   5.718   1.202  12.392 -0.1565  0.3181  0.2805
  940DECAN   C3 9383   5.699   1.354  12.382 -0.3719  0.2424 -0.5020
  940DECAN   C4 9384   5.778   1.441  12.282 -0.0231  0.3731 -0.1128
  940DECAN   C5 9385   5.751   1.592  12.297 -0.7245  0.3024 -0.6215
  940DECAN   C6 9386   5.845   1.687  12.221  0.0623  0.0866  0.0653
  940DECAN   C7 9387   5.789   1.830  12.209  0.0643  0.0481 -0.4116
  940DECAN   C8 9388   5.651   1.847  12.141  0.1885  0.1498 -0.6376
  940DECAN   C9 9389   5.598   1.989  12.166 -0.1798 -0.0803 -0.0915
  940DECAN  C10 9390   5.629   2.053  12.302 -0.3891  0.0970 -0.1261
  941DECAN   C1 9391   7.099   8.760   5.522  0.0770 -0.4338 -0.1859
  941DECAN   C2 9392   7.054   8.907   5.534  0.1268 -0.4545  0.2718
  941DECAN   C3 9393   6.912   8.937   5.587  0.2221  0.2248  0.1541
  941DECAN   C4 9394   6.881   9.087   5.597  0.2108  0.1949  0.5697
  941DECAN   C5 9395   6.752   9.118   5.676 -0.2430  0.0907 -0.1240
  941DECAN   C6 9396   6.724   9.268   5.698 -0.4832  0.0426 -0.0951
  941DECAN   C7 9397   6.602   9.296   5.787 -0.3940 -0.0609  0.0606
  941DECAN   C8 9398   6.568   9.445   5.799  0.8906  0.1870  0.7849
  941DECAN   C9 9399   6.445   9.486   5.884  0.0709  0.3488 -0.4531
  941DECAN  C10 9400   6.433   9.639   5.879 -0.6507  0.2987 -0.3429
  942DECAN   C1 9401   4.771   8.297   4.523 -0.4298 -0.0903 -0.2318
  942DECAN   C2 9402   4.760   8.340   4.670  0.1047 -0.1248 -0.1794
  942DECAN   C3 9403   4.886   8.294   4.746 -0.0231 -0.0792  0.0608
  942DECAN   C4 9404   4.903   8.357   4.885 -0.0265 -0.0449  0.0454
  942DECAN   C5 9405   4.795   8.305   4.982  0.0619 -0.2102  0.0560
  942DECAN   C6 9406   4.782   8.152   4.997 -0.3029 -0.1575  0.2853
  942DECAN   C7 9407   4.917   8.103   5.051  0.4259  0.4390 -0.9346
  942DECAN   C8 9408   4.922   7.949   5.061  0.2173  0.4667 -0.3559
  942DECAN   C9 9409   4.877   7.888   5.195  0.2520  0.6437 -0.2640
  942DECAN  C10 9410   4.906   7.738   5.212  0.3457  0.6286 -0.5614
  943DECAN   C1 9411   2.519   0.233  11.972  0.0578 -0.5557 -0.8608
  943DECAN   C2 9412   2.646   0.300  12.026 -0.4957 -0.2253  0.0573
  943DECAN   C3 9413   2.727   0.222  12.132 -0.3446 -0.3537 -0.1516
  943DECAN   C4 9414   2.801   0.107  12.062  0.4467  0.0624 -0.0188
  943DECAN   C5 9415   2.913   0.038  12.142  0.6083  0.5486  0.1767
  943DECAN   C6 9416   2.976  11.162  12.068 -0.3497  0.1294  0.0221
  943DECAN   C7 9417   2.903  11.027  12.080  0.1628 -0.1721 -0.2239
  943DECAN   C8 9418   2.754  11.033  12.042  0.1169  0.0142 -0.0114
  943DECAN   C9 9419   2.671  10.909  12.079  0.2353  0.0389  0.3462
  943DECAN  C10 9420   2.525  10.933  12.035  0.2314  0.2319  0.4635
  944DECAN   C1 9421   4.025   7.139  13.913  0.3600  0.1106 -0.2278
  944DECAN   C2 9422   3.922   7.110  14.024  0.8691  0.1109  0.2493
  944DECAN   C3 9423   3.987   7.078  14.160 -0.5260 -0.8356  0.7111
  944DECAN   C4 9424   4.109   6.986  14.141 -0.1905 -0.3146  0.3198
  944DECAN   C5 9425   4.089   6.848  14.076  0.0955  0.2538 -1.0146
  944DECAN   C6 9426   4.202   6.746  14.095 -0.0674  0.2512 -0.0024
  944DECAN   C7 9427   4.323   6.771  14.003  0.0417 -0.1136  0.0392
  944DECAN   C8 9428   4.455   6.695  14.031  0.2141  0.1733  0.0093
  944DECAN   C9 9429   4.441   6.542  14.030 -0.1054  0.2035 -0.3360
  944DECAN  C10 9430   4.463   6.474  13.894 -0.0734 -0.2504 -0.1070
  945DECAN   C1 9431   5.887   5.750   6.259 -0.1029  0.2515 -0.3205
  945DECAN   C2 9432   5.971   5.626   6.224 -0.1139  0.2580 -0.3699
  945DECAN   C3 9433   5.899   5.492   6.200 -0.2164  0.2249  0.0992
  945DECAN   C4 9434   5.996   5.382   6.151 -0.9702 -0.1869 -0.4993
  945DECAN   C5 9435   5.936   5.241   6.144 -0.2262 -0.5179 -0.3561
  945DECAN   C6 9436   5.874   5.185   6.274 -0.9315  0.5674 -0.2122
  945DECAN   C7 9437   5.815   5.048   6.236 -0.1511  0.1193  0.1556
  945DECAN   C8 9438   5.706   4.998   6.333 -0.1467  0.2691  0.2390
  945DECAN   C9 9439   5.617   4.878   6.293  0.2628  0.0401  0.0101
  945DECAN  C10 9440   5.554   4.894   6.153 -0.1086 -0.1033  0.1605
  946DECAN   C1 9441   4.214   7.747   9.982  0.0835 -0.5799 -0.6716
  946DECAN   C2 9442   4.350   7.764  10.051 -0.2059  0.3065 -0.2973
  946DECAN   C3 9443   4.426   7.894  10.018  0.0478  0.2378  0.0025
  946DECAN   C4 9444   4.551   7.907  10.107 -0.2285  0.3816  0.3712
  946DECAN   C5 9445   4.524   7.892  10.258  0.1662 -0.4302  0.3652
  946DECAN   C6 9446   4.467   7.761  10.315  0.4913 -0.9961 -0.5924
  946DECAN   C7 9447   4.453   7.752  10.468 -0.1504 -0.2420 -0.6004
  946DECAN   C8 9448   4.378   7.629  10.522  0.3181 -0.1162  0.3777
  946DECAN   C9 9449   4.438   7.491  10.489 -0.2493 -0.3953  0.4805
  946DECAN  C10 9450   4.370   7.383  10.574  0.2217 -0.6658  0.5149
  947DECAN   C1 9451   6.267   4.385   6.523  0.2727 -0.5408 -0.3009
  947DECAN   C2 9452   6.289   4.455   6.388  0.3517 -0.5487 -0.2925
  947DECAN   C3 9453   6.160   4.516   6.330  0.4115 -0.0984  0.0526
  947DECAN   C4 9454   6.177   4.568   6.186 -0.2849  0.0525  0.0202
  947DECAN   C5 9455   6.051   4.608   6.107 -0.2313 -0.8385 -0.5309
  947DECAN   C6 9456   6.072   4.676   5.971 -0.0031  0.0037 -0.0819
  947DECAN   C7 9457   5.953   4.653   5.877  0.3809 -0.1413 -0.5405
  947DECAN   C8 9458   5.986   4.730   5.747 -0.0191 -0.3558 -0.7728
  947DECAN   C9 9459   5.899   4.710   5.622 -0.9516  0.2348 -0.2306
  947DECAN  C10 9460   5.902   4.811   5.505 -0.0722  0.0829 -0.3475
  948DECAN   C1 9461   5.331   1.895  11.415  0.0323 -0.4282 -0.0459
  948DECAN   C2 9462   5.369   2.011  11.321  0.2383 -0.4334  0.0305
  948DECAN   C3 9463   5.518   2.050  11.320 -0.0629  0.7726  0.8063
  948DECAN   C4 9464   5.558   2.173  11.237 -0.2470  0.4366  0.2193
  948DECAN   C5 9465   5.696   2.232  11.271 -0.3960  0.9922 -0.1338
  948DECAN   C6 9466   5.698   2.294  11.411 -0.0248 -0.0861  0.3482
  948DECAN   C7 9467   5.831   2.357  11.457  0.0437  0.3795 -0.4843
  948DECAN   C8 9468   5.811   2.436  11.588 -0.2998 -0.4081 -0.0584
  948DECAN   C9 9469   5.936   2.518  11.622 -0.3639 -0.3849  0.1214
  948DECAN  C10 9470   6.056   2.434  11.670  0.0679 -0.1379 -0.5065
  949DECAN   C1 9471   9.458   0.847   5.620  0.3273  0.1175  0.7291
  949DECAN   C2 9472   9.360   0.965   5.633  0.4991  0.2651  0.6871
  949DECAN   C3 9473   9.402   1.067   5.525 -0.4504  0.2893  0.3366
  949DECAN   C4 9474   9.298   1.174   5.486 -0.7148 -0.1283 -0.1218
  949DECAN   C5 9475   9.353   1.271   5.379 -0.1303 -0.3416 -0.0209
  949DECAN   C6 9476   9.238   1.321   5.288  0.0679  0.0426 -0.0617
  949DECAN   C7 9477   9.291   1.416   5.180  0.1084  0.2101  0.1047
  949DECAN   C8 9478   9.423   1.365   5.119  0.2623  0.2807  0.3765
  949DECAN   C9 9479   9.462   1.433   4.986 -0.4240 -0.0246  0.0148
  949DECAN  C10 9480   9.563   1.355   4.900 -0.3209 -0.7783  0.8008
  950DECAN   C1 9481   1.807   9.543   8.261  0.4455  0.1672 -0.7208
  950DECAN   C2 9482   1.791   9.697   8.259  0.4738  0.1827 -0.0818
  950DECAN   C3 9483   1.925   9.773   8.246  0.4811  0.1656 -0.1038
  950DECAN   C4 9484   1.993   9.745   8.111 -0.0799  0.2641 -0.4115
  950DECAN   C5 9485   2.100   9.853   8.088 -0.3992  0.5954 -0.3528
  950DECAN   C6 9486   2.178   9.812   7.961  0.0506 -0.0566  0.1279
  950DECAN   C7 9487   2.279   9.920   7.921 -0.3400  0.4263  0.4254
  950DECAN   C8 9488   2.348   9.876   7.790 -0.0424  0.1548  0.6731
  950DECAN   C9 9489   2.437   9.983   7.724  0.3322 -0.6654 -0.1775
  950DECAN  C10 9490   2.506   9.954   7.590  0.9889 -0.2142  0.0553
  951DECAN   C1 9491   9.667   1.370  13.546  0.0147  0.2275 -0.1249
  951DECAN   C2 9492   9.643   1.226  13.497  0.1569  0.2086 -0.1388
  951DECAN   C3 9493   9.764   1.149  13.440  0.3662  0.3089  0.1662
  951DECAN   C4 9494   9.723   1.007  13.397 -0.0444  0.2147  0.8582
  951DECAN   C5 9495   9.835   0.911  13.352 -0.5403 -0.0762  0.2240
  951DECAN   C6 9496   9.802   0.766  13.314 -0.2460 -0.1587  0.2863
  951DECAN   C7 9497   9.928   0.687  13.272  0.1655  0.1356  0.9651
  951DECAN   C8 9498   9.897   0.542  13.232  0.1298  0.2698  0.4977
  951DECAN   C9 9499   9.887   0.457  13.361  0.6935  0.1422  0.4626
  951DECAN  C10 9500   9.882   0.304  13.346  0.8755  0.2361 -0.6586
  952DECAN   C1 9501   2.579  10.174  12.753 -0.2469 -0.5225  0.1047
  952DECAN   C2 9502   2.474  10.240  12.663 -0.0883  0.4634  0.6233
  952DECAN   C3 9503   2.334  10.274  12.717 -0.4958 -0.2994  0.0756
  952DECAN   C4 9504   2.254  10.148  12.757  0.4367 -0.7798  0.4432
  952DECAN   C5 9505   2.260  10.039  12.648 -0.3436  0.1795 -0.5821
  952DECAN   C6 9506   2.185   9.910  12.685 -0.1782  0.2091 -0.1425
  952DECAN   C7 9507   2.245   9.848  12.813 -0.2315  0.5029  0.0256
  952DECAN   C8 9508   2.141   9.830  12.925 -0.3528 -0.0872 -0.1792
  952DECAN   C9 9509   2.006   9.759  12.903 -0.5581  0.1488  0.2856
  952DECAN  C10 9510   1.951   9.818  12.772  0.8947 -0.0813 -0.4574
  953DECAN   C1 9511   8.824   4.126   8.683 -0.2005 -1.0173  0.0496
  953DECAN   C2 9512   8.750   4.100   8.816  0.0618  0.0514  0.4170
  953DECAN   C3 9513   8.601   4.062   8.816 -0.0202  0.3804  0.4281
  953DECAN   C4 9514   8.558   4.001   8.951  0.6593 -0.3606  0.3155
  953DECAN   C5 9515   8.603   4.086   9.071 -0.1689  0.3515  0.1346
  953DECAN   C6 9516   8.581   4.008   9.202 -0.0412  0.0622 -0.0136
  953DECAN   C7 9517   8.655   4.061   9.326  0.4593  0.1338 -0.3409
  953DECAN   C8 9518   8.609   4.206   9.352 -0.4921 -0.2621  0.2574
  953DECAN   C9 9519   8.711   4.294   9.426 -0.0981 -0.1710 -0.3801
  953DECAN  C10 9520   8.660   4.438   9.450  0.7054  0.0451  0.0718
  954DECAN   C1 9521   4.737   5.435  12.640 -0.0164 -0.1148 -0.0801
  954DECAN   C2 9522   4.849   5.402  12.539  0.0049  0.1880 -0.1567
  954DECAN   C3 9523   4.916   5.524  12.472  0.4005 -0.0239 -0.1521
  954DECAN   C4 9524   5.038   5.591  12.538  0.4993 -0.1494 -0.2074
  954DECAN   C5 9525   5.115   5.681  12.439 -0.2360  0.0404 -0.6169
  954DECAN   C6 9526   5.246   5.739  12.495 -0.3187  0.0042 -0.3813
  954DECAN   C7 9527   5.322   5.839  12.406  0.5657 -0.8243 -0.5711
  954DECAN   C8 9528   5.468   5.847  12.456  0.2095  0.1663  0.3369
  954DECAN   C9 9529   5.548   5.952  12.377 -0.0929  0.0217 -0.1677
  954DECAN  C10 9530   5.694   5.952  12.427  0.0441 -0.4033 -0.5582
  955DECAN   C1 9531   3.299   3.275  12.344 -0.0044  0.0513  0.2628
  955DECAN   C2 9532   3.229   3.185  12.448  0.4064 -0.3073  0.2332
  955DECAN   C3 9533   3.101   3.233  12.518  0.2244  0.2986 -0.5038
  955DECAN   C4 9534   2.980   3.185  12.435 -0.1045  0.5396 -0.1650
  955DECAN   C5 9535   2.840   3.225  12.485 -0.3735 -0.1471 -0.3633
  955DECAN   C6 9536   2.799   3.372  12.462  0.2062  0.0703 -0.0323
  955DECAN   C7 9537   2.784   3.401  12.311 -0.2141  0.1463  0.0235
  955DECAN   C8 9538   2.909   3.463  12.246  0.1661 -0.3817  0.2392
  955DECAN   C9 9539   2.902   3.504  12.098  0.2907 -0.5295  0.1938
  955DECAN  C10 9540   2.863   3.384  12.009  0.4519  0.0106 -0.6185
  956DECAN   C1 9541   3.823   6.945   6.674  1.1899  0.0747 -0.2321
  956DECAN   C2 9542   3.848   6.796   6.703 -0.0220 -0.0951 -0.0163
  956DECAN   C3 9543   3.725   6.720   6.756 -0.6786  0.6973 -0.3890
  956DECAN   C4 9544   3.684   6.769   6.897 -0.6524 -0.6247  0.0945
  956DECAN   C5 9545   3.539   6.743   6.939 -0.8525  0.1180 -0.1187
  956DECAN   C6 9546   3.514   6.823   7.068 -0.3458 -0.1297  0.1362
  956DECAN   C7 9547   3.381   6.784   7.135 -0.1743 -0.6099  0.1992
  956DECAN   C8 9548   3.356   6.848   7.273 -0.4336 -0.3261  0.0217
  956DECAN   C9 9549   3.363   7.001   7.290  0.3194 -0.2994 -0.4946
  956DECAN  C10 9550   3.385   7.046   7.436 -0.7136 -0.2918 -0.3388
  957DECAN   C1 9551   4.297   8.143  12.957  1.0457  0.0838 -0.0470
  957DECAN   C2 9552   4.370   8.027  13.027 -0.6297 -0.7673  0.3578
  957DECAN   C3 9553   4.348   8.020  13.179 -0.2924 -0.1773  0.4377
  957DECAN   C4 9554   4.411   7.898  13.249 -0.0178 -0.1738  0.1974
  957DECAN   C5 9555   4.406   7.882  13.402  0.1939 -0.7139  0.1517
  957DECAN   C6 9556   4.462   8.008  13.469 -0.0916 -0.3563 -0.2761
  957DECAN   C7 9557   4.442   8.018  13.622  0.1544  0.1358 -0.2739
  957DECAN   C8 9558   4.523   8.124  13.700 -0.3627 -0.1762  0.7014
  957DECAN   C9 9559   4.500   8.271  13.659  0.5414 -0.1831  0.1428
  957DECAN  C10 9560   4.496   8.278  13.505  0.1451 -0.2169  0.1507
  958DECAN   C1 9561   6.612   1.656   7.455 -0.1407  0.6851 -0.2406
  958DECAN   C2 9562   6.519   1.700   7.340  0.0466  0.4526 -0.4817
  958DECAN   C3 9563   6.525   1.601   7.222  0.1784  0.3489 -0.3879
  958DECAN   C4 9564   6.456   1.466   7.249  0.1189  0.4674  0.0524
  958DECAN   C5 9565   6.318   1.463   7.318  0.1840 -0.3694  0.1644
  958DECAN   C6 9566   6.266   1.319   7.305 -0.1695 -0.2318  0.0422
  958DECAN   C7 9567   6.202   1.281   7.170 -0.3243  0.0975  0.0205
  958DECAN   C8 9568   6.122   1.150   7.174 -0.2564  0.0660  0.4499
  958DECAN   C9 9569   6.059   1.112   7.039  0.6774 -0.0111  0.0294
  958DECAN  C10 9570   5.963   1.212   6.970  0.2047 -0.3408  0.2034
  959DECAN   C1 9571  10.367   5.069   8.181 -0.2778 -0.4648  0.1680
  959DECAN   C2 9572  10.481   5.013   8.268 -0.0627  0.1771  0.3025
  959DECAN   C3 9573  10.471   4.861   8.290 -0.3883  0.1494 -0.0368
  959DECAN   C4 9574  10.555   4.779   8.190  0.4482  0.2132  0.6069
  959DECAN   C5 9575  10.559   4.629   8.227  0.1103  0.0022 -0.1806
  959DECAN   C6 9576  10.634   4.549   8.119  0.0536 -0.4642  0.1218
  959DECAN   C7 9577  10.696   4.416   8.165  0.4614 -0.5917 -0.7734
  959DECAN   C8 9578  10.601   4.306   8.218  0.1757  0.0784  0.1306
  959DECAN   C9 9579  10.504   4.378   8.314 -0.2166  0.1208 -0.2956
  959DECAN  C10 9580  10.395   4.280   8.361 -0.0970  0.4786  0.7405
  960DECAN   C1 9581   3.089   6.005  10.465  0.0329 -0.0493  0.0269
  960DECAN   C2 9582   2.938   6.027  10.442  0.1694  0.1766 -0.6954
  960DECAN   C3 9583   2.867   5.937  10.340 -0.1201  0.1260 -0.4500
  960DECAN   C4 9584   2.725   5.981  10.299 -0.2127  0.1790 -0.0735
  960DECAN   C5 9585   2.684   5.896  10.177 -0.6734 -0.6502  0.6447
  960DECAN   C6 9586   2.686   5.742  10.187 -0.2457 -0.6979 -0.1209
  960DECAN   C7 9587   2.571   5.706  10.282  0.1252  0.2869  0.7226
  960DECAN   C8 9588   2.576   5.570  10.354 -0.3190 -0.1191  0.0056
  960DECAN   C9 9589   2.444   5.526  10.419 -0.5620  0.2177 -0.2611
  960DECAN  C10 9590   2.434   5.372  10.424  0.8593  0.1124 -0.3158
  961DECAN   C1 9591   9.378   1.966   7.913  0.2957 -0.2978 -0.1658
  961DECAN   C2 9592   9.492   1.877   7.966  0.2443 -0.2784 -0.0202
  961DECAN   C3 9593   9.472   1.725   7.948  0.0407 -0.3191  0.5598
  961DECAN   C4 9594   9.611   1.664   7.969  0.3681  0.1749 -0.1636
  961DECAN   C5 9595   9.583   1.514   7.984  0.0730  0.2802  0.3476
  961DECAN   C6 9596   9.687   1.412   8.034  0.0485  0.0943  0.0225
  961DECAN   C7 9597   9.621   1.277   8.063  0.6071 -0.1809  0.0360
  961DECAN   C8 9598   9.553   1.216   7.939  0.5498 -0.4709  0.2079
  961DECAN   C9 9599   9.492   1.077   7.967 -0.2169 -0.0427  0.6924
  961DECAN  C10 9600   9.598   0.970   8.000  0.0980  0.0119 -0.1217
  962DECAN   C1 9601   4.800   4.607  12.977 -0.4531  0.8421  0.1561
  962DECAN   C2 9602   4.669   4.558  13.041 -0.1622  0.0696  0.1685
  962DECAN   C3 9603   4.540   4.631  13.000 -0.5245 -0.7409 -0.1605
  962DECAN   C4 9604   4.529   4.664  12.850  0.1236  1.2038  0.1941
  962DECAN   C5 9605   4.621   4.780  12.809  0.3542  1.0496  0.2742
  962DECAN   C6 9606   4.567   4.855  12.686 -0.6171 -0.1844 -0.0620
  962DECAN   C7 9607   4.653   4.968  12.627 -0.5002 -0.2555 -0.0267
  962DECAN   C8 9608   4.627   5.010  12.482  0.3617 -0.2223 -0.1787
  962DECAN   C9 9609   4.658   4.907  12.372 -0.1244 -0.1931 -0.3447
  962DECAN  C10 9610   4.645   4.965  12.230  0.3865  0.0272 -0.3039
  963DECAN   C1 9611   4.201   0.410  13.504 -0.0597 -0.1886  0.5337
  963DECAN   C2 9612   4.122   0.529  13.561 -0.1038 -0.0626  0.2151
  963DECAN   C3 9613   4.023   0.575  13.453  0.0263 -0.3776 -0.0377
  963DECAN   C4 9614   3.905   0.662  13.501  0.6761  0.3644  0.2154
  963DECAN   C5 9615   3.950   0.807  13.526  0.3275  0.6217 -0.6191
  963DECAN   C6 9616   3.856   0.908  13.595  0.0373 -0.1292  0.1046
  963DECAN   C7 9617   3.902   1.053  13.569 -0.9233  0.1989  0.1826
  963DECAN   C8 9618   3.867   1.102  13.427  0.1214  0.3035 -0.0472
  963DECAN   C9 9619   3.987   1.093  13.331 -0.2419 -0.7188 -0.4162
  963DECAN  C10 9620   3.923   1.112  13.192 -0.5758 -0.1041 -0.1816
  964DECAN   C1 9621   4.007  10.397   7.107 -0.0452  0.3699  0.1092
  964DECAN   C2 9622   4.023  10.244   7.107 -0.3987  0.3309 -0.5966
  964DECAN   C3 9623   3.987  10.171   7.237  0.4839  0.4188 -0.3013
  964DECAN   C4 9624   3.990  10.017   7.231 -0.0229  0.4115 -0.3726
  964DECAN   C5 9625   3.896   9.946   7.131  0.2440  0.0359 -0.3597
  964DECAN   C6 9626   3.909   9.793   7.128  0.1838  0.0210  0.1017
  964DECAN   C7 9627   3.811   9.749   7.018  0.0778  0.1463  0.1463
  964DECAN   C8 9628   3.844   9.608   6.966 -0.3411  0.0427  0.1561
  964DECAN   C9 9629   3.720   9.554   6.894 -0.3961  0.1933  0.1376
  964DECAN  C10 9630   3.703   9.614   6.754 -0.3144  0.2127  0.1364
  965DECAN   C1 9631   9.566   3.417   5.890  0.0955  0.4827 -0.3033
  965DECAN   C2 9632   9.685   3.330   5.936 -0.2365  0.3529  0.3195
  965DECAN   C3 9633   9.666   3.279   6.080  0.5715 -0.0632  0.2823
  965DECAN   C4 9634   9.793   3.215   6.137  0.2697 -0.8271  0.1030
  965DECAN   C5 9635   9.907   3.317   6.155 -0.2769 -0.0937 -0.5368
  965DECAN   C6 9636  10.012   3.285   6.263 -0.3002  0.0906 -0.4608
  965DECAN   C7 9637  10.129   3.386   6.273  0.4548 -0.8450  0.3205
  965DECAN   C8 9638  10.188   3.418   6.135 -0.3744  0.0952  0.1699
  965DECAN   C9 9639  10.310   3.512   6.138 -0.2477 -0.0791  0.5707
  965DECAN  C10 9640  10.426   3.453   6.220  0.1561 -0.0635  0.0177
  966DECAN   C1 9641   8.525   1.842  10.015  0.2501 -0.1294  0.2995
  966DECAN   C2 9642   8.613   1.749  10.101  0.6085 -0.2818 -0.2269
  966DECAN   C3 9643   8.750   1.797  10.151  0.8559  0.0510 -1.1963
  966DECAN   C4 9644   8.809   1.716  10.268 -0.1426  1.0154  0.0034
  966DECAN   C5 9645   8.954   1.754  10.303  0.1560 -0.1305  0.0371
  966DECAN   C6 9646   8.993   1.689  10.438 -0.0338  0.0476  0.1786
  966DECAN   C7 9647   8.923   1.753  10.559 -0.6549  0.3236 -0.3201
  966DECAN   C8 9648   8.939   1.699  10.702 -0.4875 -0.1385 -0.5117
  966DECAN   C9 9649   8.858   1.774  10.810  0.1824 -0.0865 -0.0385
  966DECAN  C10 9650   8.707   1.753  10.791  0.1141 -0.4245  0.8259
  967DECAN   C1 9651   8.372   8.242   4.193 -0.4768  0.0917 -0.1918
  967DECAN   C2 9652   8.388   8.135   4.083  0.3554  0.6518 -0.6317
  967DECAN   C3 9653   8.529   8.131   4.023  0.9226 -0.3120  0.7151
  967DECAN   C4 9654   8.574   7.993   3.972 -0.3239 -0.2265 -0.6666
  967DECAN   C5 9655   8.727   7.986   3.952 -0.2047  0.3224  0.0315
  967DECAN   C6 9656   8.761   7.861   3.869  0.1121  0.6439 -0.3213
  967DECAN   C7 9657   8.909   7.845   3.829  0.1084  0.0486 -0.1003
  967DECAN   C8 9658   8.944   7.707   3.769  0.1241 -0.2255  0.5317
  967DECAN   C9 9659   9.093   7.675   3.747  0.3334  0.8540  0.3171
  967DECAN  C10 9660   9.173   7.653   3.877 -0.2556 -0.2003  0.5090
  968DECAN   C1 9661   6.413   0.436  11.844  0.2555 -0.1577 -0.3964
  968DECAN   C2 9662   6.370   0.330  11.947 -0.5197  0.4030 -0.1302
  968DECAN   C3 9663   6.435   0.318  12.086 -0.0917  0.5586 -0.3154
  968DECAN   C4 9664   6.431   0.183  12.160  0.3735  0.5198 -0.3583
  968DECAN   C5 9665   6.505   0.079  12.074 -0.2375 -0.0253 -0.2342
  968DECAN   C6 9666   6.642   0.135  12.031  0.0222  0.0074  0.6263
  968DECAN   C7 9667   6.728   0.038  11.948 -0.1777  0.6224 -0.3094
  968DECAN   C8 9668   6.877   0.066  11.921 -0.0272 -0.3793 -0.5465
  968DECAN   C9 9669   6.944  11.198  11.839  0.4608 -0.4299 -0.0850
  968DECAN  C10 9670   6.930  11.063  11.913  0.2330 -0.4056 -0.0838
  969DECAN   C1 9671  10.314  10.774  13.885 -0.5953  0.4357  0.0816
  969DECAN   C2 9672  10.331  10.629  13.935  0.2998  0.6063  0.2945
  969DECAN   C3 9673  10.202  10.568  13.993  0.5921 -0.3073 -0.0068
  969DECAN   C4 9674  10.228  10.493  14.125 -0.0249 -0.9067 -0.2201
  969DECAN   C5 9675  10.099  10.428  14.178 -0.1209 -0.3880  0.1841
  969DECAN   C6 9676  10.052  10.297  14.113  0.0424 -0.5557  0.4001
  969DECAN   C7 9677  10.127  10.167  14.149  0.3020 -0.4657  0.1838
  969DECAN   C8 9678  10.097  10.130  14.296 -0.4212  0.0163  0.1659
  969DECAN   C9 9679  10.151   9.993  14.339  0.3464  0.2541 -0.0204
  969DECAN  C10 9680  10.119   9.959  14.485 -0.1012 -0.1455 -0.2092
  970DECAN   C1 9681   9.377   1.277   6.321 -0.0732  0.4898 -0.1491
  970DECAN   C2 9682   9.229   1.264   6.280 -0.2638  0.6444  0.4763
  970DECAN   C3 9683   9.160   1.133   6.324 -0.3952  0.5205 -0.0921
  970DECAN   C4 9684   9.146   1.126   6.477 -0.2560 -0.2010 -0.1103
  970DECAN   C5 9685   9.088   0.990   6.523  0.1910 -0.4819 -0.3673
  970DECAN   C6 9686   8.934   0.993   6.534  0.2269  0.5028 -0.0293
  970DECAN   C7 9687   8.880   1.068   6.657 -0.0729  0.3967 -0.0975
  970DECAN   C8 9688   8.726   1.061   6.666 -0.0861  0.3003 -0.3916
  970DECAN   C9 9689   8.667   1.152   6.774 -0.5651  0.2993 -0.6498
  970DECAN  C10 9690   8.534   1.205   6.718 -0.6333  0.2259 -0.5554
  971DECAN   C1 9691   0.893   4.675   9.275  0.4089 -0.2755 -0.0374
  971DECAN   C2 9692   0.922   4.524   9.287 -0.0349 -0.3539  0.0787
  971DECAN   C3 9693   0.853   4.461   9.409 -0.3891 -0.2302 -0.0568
  971DECAN   C4 9694   0.825   4.312   9.380  0.4021 -0.3756 -0.1031
  971DECAN   C5 9695   0.768   4.229   9.497  0.1512  0.1284  0.1404
  971DECAN   C6 9696   0.831   4.265   9.632 -0.0821  0.4082  0.1749
  971DECAN   C7 9697   0.808   4.166   9.748  0.0978 -0.3411 -0.4204
  971DECAN   C8 9698   0.849   4.213   9.889 -0.0529  0.2095 -0.5559
  971DECAN   C9 9699   0.803   4.108   9.993 -0.0227  1.1595  0.4310
  971DECAN  C10 9700   0.868   4.125  10.132 -0.4012 -0.4334  0.8151
  972DECAN   C1 9701   2.319   6.013  14.526 -0.3804 -1.0056  0.0365
  972DECAN   C2 9702   2.468   5.991  14.490 -0.3337 -0.4129 -0.1438
  972DECAN   C3 9703   2.486   6.011  14.338  0.6623  0.0957  0.0337
  972DECAN   C4 9704   2.630   6.001  14.285  0.3219 -0.2311 -0.8474
  972DECAN   C5 9705   2.634   6.034  14.135  0.3568 -0.0230 -0.8009
  972DECAN   C6 9706   2.770   6.016  14.065  0.8067  0.4259 -0.0508
  972DECAN   C7 9707   2.786   6.038  13.913  0.1817 -0.0450 -0.1922
  972DECAN   C8 9708   2.921   6.000  13.850  0.7840 -0.1975  1.1476
  972DECAN   C9 9709   3.033   6.057  13.939  0.4507  0.9256  0.8703
  972DECAN  C10 9710   3.015   6.033  14.090 -0.1083 -0.1025  0.6479
  973DECAN   C1 9711   8.234  11.079  10.301 -0.0181 -0.0146 -0.4368
  973DECAN   C2 9712   8.373  11.026  10.341 -0.1617 -0.1128 -0.0615
  973DECAN   C3 9713   8.390  10.878  10.380  0.0837 -0.1122 -0.1626
  973DECAN   C4 9714   8.536  10.830  10.391  0.2395  0.4111  0.0758
  973DECAN   C5 9715   8.561  10.685  10.435  0.6543  0.2927 -0.5459
  973DECAN   C6 9716   8.699  10.654  10.496  0.0501 -0.2539  0.5842
  973DECAN   C7 9717   8.765  10.768  10.575  0.3666 -0.0431  0.0212
  973DECAN   C8 9718   8.892  10.719  10.648  0.7175 -0.1415 -0.6426
  973DECAN   C9 9719   8.872  10.595  10.737  0.7545  0.5405  0.3393
  973DECAN  C10 9720   8.994  10.516  10.788  0.5848 -0.3954 -0.6515
  974DECAN   C1 9721   9.721  10.452  10.264  0.1752 -0.2738  1.0546
  974DECAN   C2 9722   9.837  10.401  10.177 -0.1904  0.6669 -0.0061
  974DECAN   C3 9723   9.972  10.433  10.243  0.3194 -0.2095 -0.6014
  974DECAN   C4 9724  10.088  10.364  10.169  0.2641 -1.0462  0.0636
  974DECAN   C5 9725  10.226  10.407  10.222 -0.0471  0.2444 -0.1370
  974DECAN   C6 9726  10.270  10.364  10.364 -0.3052  0.1401 -0.0878
  974DECAN   C7 9727  10.379  10.457  10.420  0.1230 -0.3177 -0.1577
  974DECAN   C8 9728  10.459  10.412  10.544  0.6052  0.0162 -0.3432
  974DECAN   C9 9729  10.505  10.265  10.549  0.2982 -0.0721 -0.0757
  974DECAN  C10 9730  10.597  10.241  10.670 -0.0901 -0.1768  0.2007
  975DECAN   C1 9731   3.930   8.244   5.985  0.4506 -0.1502 -0.0496
  975DECAN   C2 9732   3.921   8.122   6.079  0.0344 -0.0188  0.0803
  975DECAN   C3 9733   3.798   8.121   6.171 -0.1389 -0.4839 -0.1527
  975DECAN   C4 9734   3.784   8.000   6.265  0.4782 -0.0354  0.5246
  975DECAN   C5 9735   3.670   7.991   6.368 -0.6892  0.3824 -0.7139
  975DECAN   C6 9736   3.668   7.845   6.419  0.2116  0.5365 -0.2330
  975DECAN   C7 9737   3.560   7.826   6.527  0.2116  0.3026 -0.2755
  975DECAN   C8 9738   3.599   7.705   6.615 -0.1478  0.3202 -0.0906
  975DECAN   C9 9739   3.485   7.614   6.664  0.0789  0.4357  0.6657
  975DECAN  C10 9740   3.524   7.500   6.759  0.0382 -0.4475 -0.3660
  976DECAN   C1 9741   2.188   3.390   5.628 -0.0647  0.0224 -0.0219
  976DECAN   C2 9742   2.153   3.537   5.598 -0.1157  0.1951  0.8769
  976DECAN   C3 9743   2.269   3.623   5.544 -0.3141 -0.6394 -0.9189
  976DECAN   C4 9744   2.228   3.769   5.516  0.9737 -0.1667 -0.3859
  976DECAN   C5 9745   2.356   3.849   5.484  0.2937  0.8531 -0.5956
  976DECAN   C6 9746   2.450   3.840   5.605 -0.0304  0.6706 -0.3569
  976DECAN   C7 9747   2.599   3.873   5.581  0.2765 -0.6872 -0.4099
  976DECAN   C8 9748   2.625   4.003   5.503 -0.7962  0.1025  0.5326
  976DECAN   C9 9749   2.772   4.049   5.498 -0.6216 -0.4957  0.1124
  976DECAN  C10 9750   2.822   4.111   5.367 -0.9960 -0.2884  0.0654
  977DECAN   C1 9751   8.214   9.418   5.190 -0.6711  0.5893  0.1945
  977DECAN   C2 9752   8.340   9.502   5.221 -0.3109  0.1869 -0.1577
  977DECAN   C3 9753   8.404   9.465   5.356  0.1632  0.2959 -0.3521
  977DECAN   C4 9754   8.529   9.551   5.383  0.4013  0.0142 -0.5363
  977DECAN   C5 9755   8.589   9.514   5.520 -0.9341 -0.2159  0.0056
  977DECAN   C6 9756   8.626   9.365   5.537  0.1351  0.0699  0.2821
  977DECAN   C7 9757   8.580   9.312   5.674 -0.5127 -0.5077 -0.1516
  977DECAN   C8 9758   8.620   9.167   5.708  0.6183 -0.1996 -0.1325
  977DECAN   C9 9759   8.571   9.110   5.842  0.3461 -0.1503 -0.2109
  977DECAN  C10 9760   8.638   9.189   5.956  0.0389 -0.1200 -0.0504
  978DECAN   C1 9761   9.297   6.277   5.816 -0.6094 -0.1127  0.3214
  978DECAN   C2 9762   9.189   6.355   5.738  0.2531  0.1483 -0.6410
  978DECAN   C3 9763   9.069   6.266   5.702  0.3482  0.0030 -0.5963
  978DECAN   C4 9764   8.981   6.346   5.606  0.3016 -0.1216 -0.6575
  978DECAN   C5 9765   8.911   6.469   5.667  0.4019 -0.0999 -0.5860
  978DECAN   C6 9766   8.849   6.563   5.562 -0.7363  0.2503  0.3814
  978DECAN   C7 9767   8.750   6.667   5.619 -0.3060  0.7711  0.1952
  978DECAN   C8 9768   8.643   6.610   5.715  0.1497  0.2224  0.3895
  978DECAN   C9 9769   8.548   6.723   5.759 -0.4656  0.0065 -0.3457
  978DECAN  C10 9770   8.457   6.668   5.870 -0.6165  0.9219 -0.0089
  979DECAN   C1 9771   6.142   8.037   9.461 -0.0416 -0.0639  0.1993
  979DECAN   C2 9772   6.178   8.024   9.610 -0.2068  0.5076  0.2921
  979DECAN   C3 9773   6.330   8.009   9.632 -0.1755  0.3968  0.0076
  979DECAN   C4 9774   6.374   7.997   9.779 -0.1742  0.6961  0.0318
  979DECAN   C5 9775   6.285   7.921   9.879 -0.2618  1.0572  0.2308
  979DECAN   C6 9776   6.351   7.905  10.017  0.0455 -0.2330 -0.0555
  979DECAN   C7 9777   6.260   7.865  10.134  0.6000 -0.3219  0.3492
  979DECAN   C8 9778   6.197   7.725  10.120  0.5060 -0.2751  0.3075
  979DECAN   C9 9779   6.137   7.665  10.248 -0.0307 -0.1486  0.1185
  979DECAN  C10 9780   6.052   7.537  10.234 -0.0559 -0.1802  0.5340
  980DECAN   C1 9781   2.052   9.864   7.565  0.3687  0.6747 -0.5646
  980DECAN   C2 9782   2.031   9.943   7.435 -0.1230  0.2571 -0.7380
  980DECAN   C3 9783   2.010   9.861   7.306  0.0681 -0.4290 -0.3357
  980DECAN   C4 9784   2.017   9.946   7.178 -0.0303 -0.1594 -0.1622
  980DECAN   C5 9785   2.166   9.970   7.148 -0.0918  0.3291 -0.0834
  980DECAN   C6 9786   2.190  10.048   7.017 -0.1884 -0.0169 -0.3090
  980DECAN   C7 9787   2.151  10.197   7.012  0.5113  0.1770  0.0048
  980DECAN   C8 9788   2.218  10.276   6.898  0.3815  0.4040  0.0836
  980DECAN   C9 9789   2.205  10.428   6.918 -0.1346  0.3410  0.2277
  980DECAN  C10 9790   2.253  10.513   6.799 -0.4650  0.4723  0.1865
  981DECAN   C1 9791   5.329   0.562   6.005  0.0479 -0.3656 -0.1958
  981DECAN   C2 9792   5.364   0.480   6.130  0.1455 -0.7996 -0.5035
  981DECAN   C3 9793   5.232   0.461   6.208  0.0336  0.3054 -0.4069
  981DECAN   C4 9794   5.265   0.419   6.352 -0.1450  0.3757 -0.3453
  981DECAN   C5 9795   5.144   0.366   6.431  0.3791 -0.2446  0.0573
  981DECAN   C6 9796   5.057   0.482   6.481  0.1790 -0.3076 -0.1382
  981DECAN   C7 9797   4.924   0.418   6.525  0.0687 -0.1772 -0.2788
  981DECAN   C8 9798   4.948   0.329   6.649 -0.0712  0.3681  0.1438
  981DECAN   C9 9799   4.994   0.421   6.764  0.2661  0.1627  0.1748
  981DECAN  C10 9800   5.053   0.351   6.888  0.0434 -0.5483 -0.1121
  982DECAN   C1 9801   8.519   0.206   5.276  0.6878 -0.0580  0.0691
  982DECAN   C2 9802   8.428   0.330   5.283 -0.2749 -0.7166 -0.5549
  982DECAN   C3 9803   8.376   0.352   5.426 -0.0948 -0.2168 -0.5617
  982DECAN   C4 9804   8.270   0.464   5.430 -0.2200 -0.3505  0.1376
  982DECAN   C5 9805   8.223   0.485   5.575  0.2384  0.4391  0.1786
  982DECAN   C6 9806   8.143   0.370   5.640 -0.1678  0.4491 -0.2901
  982DECAN   C7 9807   8.137   0.356   5.793  0.1044 -0.1478 -0.3314
  982DECAN   C8 9808   8.270   0.355   5.871 -0.1597 -0.1529  0.1258
  982DECAN   C9 9809   8.261   0.359   6.025  0.3423 -0.4438  0.1648
  982DECAN  C10 9810   8.381   0.406   6.109  0.2900  0.2602 -0.1541
  983DECAN   C1 9811   2.412   0.918   5.441 -0.4246 -0.0008  0.0551
  983DECAN   C2 9812   2.301   1.024   5.439 -0.0066  0.4366 -0.5951
  983DECAN   C3 9813   2.161   0.958   5.431  0.2770 -0.2624  0.0448
  983DECAN   C4 9814   2.119   0.910   5.291 -0.0326 -0.2115  0.1215
  983DECAN   C5 9815   1.995   0.820   5.310 -0.1068 -0.0911  0.2048
  983DECAN   C6 9816   2.040   0.677   5.342 -0.0495 -0.2489 -0.5618
  983DECAN   C7 9817   1.936   0.590   5.414 -0.0122 -0.1824 -0.4278
  983DECAN   C8 9818   1.993   0.451   5.450  0.0197 -0.2496 -0.7340
  983DECAN   C9 9819   1.887   0.352   5.499 -0.1446 -0.0785 -0.7444
  983DECAN  C10 9820   1.958   0.240   5.577 -0.2738  0.5050  0.2375
  984DECAN   C1 9821   9.844   0.619   7.976  0.3189  0.0415  0.3874
  984DECAN   C2 9822   9.790   0.475   7.972  0.2558  0.0799 -0.1422
  984DECAN   C3 9823   9.895   0.365   7.944  0.5315  0.4054 -0.3958
  984DECAN   C4 9824   9.864   0.216   7.966  0.2074  0.5310  0.0284
  984DECAN   C5 9825   9.799   0.152   7.842 -0.4075 -0.0131  0.6255
  984DECAN   C6 9826   9.744   0.015   7.885 -0.3172  0.0606  0.9742
  984DECAN   C7 9827   9.861  11.161   7.904 -0.1246  0.1532  0.2848
  984DECAN   C8 9828   9.975  11.217   7.992  0.0844  0.6316 -0.2834
  984DECAN   C9 9829  10.102  11.131   7.979 -0.0736  0.4713 -0.8045
  984DECAN  C10 9830  10.132  11.106   7.830  0.1778 -0.8223 -0.5523
  985DECAN   C1 9831   3.320   2.051   4.968 -0.2444 -0.3311  0.8598
  985DECAN   C2 9832   3.433   2.120   5.048 -0.1097  0.4227  0.0266
  985DECAN   C3 9833   3.564   2.150   4.973 -0.1016  0.7094  0.1529
  985DECAN   C4 9834   3.667   2.188   5.081  0.0505 -0.2326  0.3513
  985DECAN   C5 9835   3.643   2.316   5.163  0.2457  0.0762 -0.0696
  985DECAN   C6 9836   3.609   2.451   5.096  0.5888  0.1651 -0.0639
  985DECAN   C7 9837   3.558   2.567   5.184 -0.4385 -0.2531 -0.0961
  985DECAN   C8 9838   3.639   2.590   5.313  0.4089  0.6887 -0.7815
  985DECAN   C9 9839   3.554   2.678   5.406  0.4860  0.0770 -0.1182
  985DECAN  C10 9840   3.543   2.828   5.372 -0.2498  0.0280 -0.1096
  986DECAN   C1 9841   5.315   6.019  14.405 -0.1634  0.2448  0.3846
  986DECAN   C2 9842   5.227   6.028  14.279  0.0976  0.0847  0.1889
  986DECAN   C3 9843   5.181   6.173  14.256  0.2690  0.0583 -0.3306
  986DECAN   C4 9844   5.069   6.175  14.151 -0.0610  0.3014  0.0217
  986DECAN   C5 9845   5.115   6.132  14.010 -0.3385 -0.3138  0.1117
  986DECAN   C6 9846   5.146   5.983  13.990 -0.3803 -0.3100  0.0180
  986DECAN   C7 9847   5.202   5.935  13.855  0.1740 -0.1312  0.1798
  986DECAN   C8 9848   5.222   5.783  13.862 -0.2354 -0.1991 -0.0674
  986DECAN   C9 9849   5.095   5.702  13.892 -0.2765 -0.0900  0.0486
  986DECAN  C10 9850   5.040   5.710  14.036  0.2978  0.4772  0.2427
  987DECAN   C1 9851   5.377   8.578  10.276  0.1348 -0.2480  0.0945
  987DECAN   C2 9852   5.227   8.614  10.279  0.2515  0.2112  0.6430
  987DECAN   C3 9853   5.193   8.736  10.367 -0.3501  0.3959  0.1631
  987DECAN   C4 9854   5.041   8.760  10.372 -0.4093  0.0589  0.0316
  987DECAN   C5 9855   5.002   8.882  10.458  0.0063  0.2516 -0.0477
  987DECAN   C6 9856   4.854   8.923  10.445  0.0461  0.3861 -0.0738
  987DECAN   C7 9857   4.762   8.828  10.524  0.3730 -0.2011 -0.3896
  987DECAN   C8 9858   4.613   8.865  10.508  0.3240 -0.2176  0.0328
  987DECAN   C9 9859   4.510   8.785  10.591 -0.3233  0.2566 -0.3028
  987DECAN  C10 9860   4.366   8.837  10.580 -0.5083 -0.1885 -0.0077
  988DECAN   C1 9861   4.993  10.876  10.189 -0.0900  0.1887 -0.2582
  988DECAN   C2 9862   5.075  10.980  10.111  0.1925  0.0978 -0.0847
  988DECAN   C3 9863   5.208  10.919  10.063  0.0362  0.0845 -0.5059
  988DECAN   C4 9864   5.307  10.920  10.181 -0.1678 -0.5111 -0.3278
  988DECAN   C5 9865   5.455  10.895  10.146 -0.2439  0.1761 -1.1905
  988DECAN   C6 9866   5.499  10.758  10.091  0.5950  0.1704 -0.5351
  988DECAN   C7 9867   5.433  10.749   9.952 -0.2504  0.1009 -0.1329
  988DECAN   C8 9868   5.472  10.625   9.870 -0.2470  0.2841 -0.4108
  988DECAN   C9 9869   5.626  10.616   9.877 -0.2531 -0.3057 -0.9436
  988DECAN  C10 9870   5.691  10.755   9.860  0.4989 -0.5762 -0.3311
  989DECAN   C1 9871   2.367   7.921   5.419 -0.0244 -0.6477  0.3796
  989DECAN   C2 9872   2.415   7.898   5.564  0.4982 -0.4007  0.2476
  989DECAN   C3 9873   2.412   7.750   5.606 -0.0116 -0.4467  0.0551
  989DECAN   C4 9874   2.510   7.667   5.522  0.4041  0.3609 -0.2655
  989DECAN   C5 9875   2.513   7.691   5.370  0.0075 -0.1753 -0.3583
  989DECAN   C6 9876   2.587   7.588   5.282 -0.2996 -0.1274 -0.6732
  989DECAN   C7 9877   2.735   7.599   5.321 -0.5288 -0.0479  0.2018
  989DECAN   C8 9878   2.828   7.504   5.243 -0.0992  0.3338  0.2422
  989DECAN   C9 9879   2.864   7.567   5.107  0.1613 -0.4301 -0.0487
  989DECAN  C10 9880   2.945   7.696   5.128 -0.1727 -0.3241  0.6004
  990DECAN   C1 9881   2.681   7.286  14.075  0.3384  0.1238  0.1842
  990DECAN   C2 9882   2.676   7.370  13.946 -0.1834 -0.2715 -0.0553
  990DECAN   C3 9883   2.547   7.345  13.865  0.1216 -0.0409 -0.6243
  990DECAN   C4 9884   2.425   7.383  13.952  0.1262 -0.1356 -0.5766
  990DECAN   C5 9885   2.299   7.348  13.870 -0.5601  0.6433  0.1293
  990DECAN   C6 9886   2.260   7.200  13.852  0.3662  0.3743  0.2360
  990DECAN   C7 9887   2.154   7.173  13.744  1.0586 -0.4188 -0.2546
  990DECAN   C8 9888   2.121   7.026  13.711  0.1669 -0.3757  0.3887
  990DECAN   C9 9889   2.016   7.014  13.599 -0.3212 -0.1477  0.8194
  990DECAN  C10 9890   1.973   6.869  13.569 -0.4400 -0.0060  0.2999
  991DECAN   C1 9891   2.915   6.867  11.438 -0.0503 -0.2574  0.5292
  991DECAN   C2 9892   2.784   6.789  11.458 -0.4978  0.3411 -0.0188
  991DECAN   C3 9893   2.664   6.879  11.422 -0.4788  0.3212 -0.1338
  991DECAN   C4 9894   2.620   6.934  11.559  0.1873 -0.0024  0.2161
  991DECAN   C5 9895   2.706   7.039  11.631  0.1520 -0.1282  0.4452
  991DECAN   C6 9896   2.640   7.135  11.731 -0.5062 -0.3957  0.2724
  991DECAN   C7 9897   2.554   7.237  11.653  0.2923  0.3445  0.3444
  991DECAN   C8 9898   2.460   7.330  11.731 -0.2497  0.0633  0.0260
  991DECAN   C9 9899   2.407   7.434  11.630  0.2525  0.4177  0.1257
  991DECAN  C10 9900   2.301   7.518  11.702  0.3674  0.4626  0.2435
  992DECAN   C1 9901   1.544   6.665  13.748 -0.1146  0.0275  0.0069
  992DECAN   C2 9902   1.414   6.601  13.698 -0.1638  0.3754 -0.3117
  992DECAN   C3 9903   1.388   6.615  13.546 -0.1661 -0.0759 -0.3542
  992DECAN   C4 9904   1.269   6.538  13.487 -0.5014  0.0352  0.1688
  992DECAN   C5 9905   1.273   6.387  13.513  0.1408 -0.0003 -0.1220
  992DECAN   C6 9906   1.386   6.308  13.444  0.3250  0.1278  0.0327
  992DECAN   C7 9907   1.366   6.156  13.456 -0.2000  0.2167  0.2974
  992DECAN   C8 9908   1.352   6.098  13.597 -0.1132 -0.2605  0.1113
  992DECAN   C9 9909   1.326   5.946  13.598 -0.3265 -0.2270 -0.2230
  992DECAN  C10 9910   1.376   5.885  13.731 -0.1873  0.0644 -0.1397
  993DECAN   C1 9911   8.684   9.159   5.204  0.4294  0.1056  0.3431
  993DECAN   C2 9912   8.681   9.046   5.309 -0.2104 -0.0335  0.1791
  993DECAN   C3 9913   8.548   8.969   5.308 -0.0704 -0.2731 -0.1668
  993DECAN   C4 9914   8.540   8.851   5.406  0.1683 -0.1035  0.0551
  993DECAN   C5 9915   8.423   8.753   5.387  0.0236  0.0770  0.0177
  993DECAN   C6 9916   8.440   8.624   5.470  0.1101  0.2255  0.2336
  993DECAN   C7 9917   8.579   8.559   5.455  0.1708  0.4076 -0.0094
  993DECAN   C8 9918   8.604   8.453   5.564 -0.4146  0.1013 -0.1667
  993DECAN   C9 9919   8.658   8.525   5.689  0.0906 -0.5217 -0.0213
  993DECAN  C10 9920   8.552   8.603   5.769  0.1118  0.0821 -0.5794
  994DECAN   C1 9921   8.498   3.768   6.354 -0.6122  0.2064  0.1125
  994DECAN   C2 9922   8.357   3.800   6.405 -0.7523 -0.6665  0.2954
  994DECAN   C3 9923   8.343   3.847   6.551  0.1705  1.1138 -0.1593
  994DECAN   C4 9924   8.193   3.854   6.587 -0.0131 -0.8830 -0.4097
  994DECAN   C5 9925   8.107   3.734   6.546 -0.5209 -0.5292 -0.3883
  994DECAN   C6 9926   7.960   3.749   6.591 -0.3051  0.1152  0.1080
  994DECAN   C7 9927   7.884   3.616   6.582  0.2896 -0.2296  0.1512
  994DECAN   C8 9928   7.754   3.623   6.665  0.2704  0.2493  0.0849
  994DECAN   C9 9929   7.690   3.488   6.702  0.5134  0.0949 -0.0541
  994DECAN  C10 9930   7.554   3.512   6.770  0.0065 -0.4930 -0.8331
  995DECAN   C1 9931   5.855   5.512  11.568  0.6842  0.2618 -0.1598
  995DECAN   C2 9932   5.989   5.555  11.632  0.4697 -0.0396  0.5028
  995DECAN   C3 9933   6.026   5.464  11.750  0.1527 -0.1683  0.5038
  995DECAN   C4 9934   6.174   5.468  11.792  0.1452 -0.0108  0.5158
  995DECAN   C5 9935   6.198   5.376  11.914  0.8982  0.3277  0.6261
  995DECAN   C6 9936   6.101   5.370  12.033  0.4498  0.0791  0.2504
  995DECAN   C7 9937   6.135   5.255  12.129 -0.1296  0.0333  0.4066
  995DECAN   C8 9938   6.281   5.264  12.178  0.1787  0.1413 -0.5003
  995DECAN   C9 9939   6.383   5.292  12.067  0.3574  0.4994 -0.2480
  995DECAN  C10 9940   6.524   5.312  12.127  0.1908 -0.0626  0.3419
  996DECAN   C1 9941   6.416   3.853  11.641  0.4512 -0.6732  0.0992
  996DECAN   C2 9942   6.289   3.789  11.701  0.3207 -0.2218  0.3055
  996DECAN   C3 9943   6.284   3.782  11.855 -0.3326  0.8633  0.3415
  996DECAN   C4 9944   6.154   3.725  11.914  0.2299 -0.8357 -0.0004
  996DECAN   C5 9945   6.155   3.727  12.068  0.2358 -0.1384 -0.0047
  996DECAN   C6 9946   6.143   3.864  12.137  0.0480 -0.1631  0.0115
  996DECAN   C7 9947   6.020   3.935  12.077 -0.0914 -0.2623  0.1786
  996DECAN   C8 9948   5.881   3.889  12.123 -0.2268 -0.8586 -0.8150
  996DECAN   C9 9949   5.760   3.947  12.047 -0.0633  0.3690 -0.1545
  996DECAN  C10 9950   5.644   3.911  12.141  0.2180 -0.5196 -0.1356
  997DECAN   C1 9951   5.243   9.823   4.097 -0.0229 -0.2475 -0.1599
  997DECAN   C2 9952   5.105   9.890   4.082 -0.0148 -0.1058  0.4084
  997DECAN   C3 9953   5.112  10.037   4.128 -0.0483  0.0629 -0.1165
  997DECAN   C4 9954   5.036  10.137   4.040  0.2144  0.1993 -0.1890
  997DECAN   C5 9955   5.018  10.283   4.086  0.0320  0.1733 -0.1769
  997DECAN   C6 9956   4.949  10.374   3.983 -0.0918 -0.0174 -0.2624
  997DECAN   C7 9957   4.871  10.490   4.048 -0.0478 -0.0023 -0.2369
  997DECAN   C8 9958   4.793  10.583   3.953 -0.3548  0.0812  0.0965
  997DECAN   C9 9959   4.700  10.689   4.017 -0.1620  0.3178 -0.0111
  997DECAN  C10 9960   4.636  10.787   3.917 -0.0047 -0.2881 -0.7155
  998DECAN   C1 9961   7.059   5.270  11.838  0.1208  0.2898  0.5543
  998DECAN   C2 9962   7.204   5.247  11.794 -0.0945 -0.1193  0.0507
  998DECAN   C3 9963   7.265   5.113  11.842  0.3276  0.0728  0.0581
  998DECAN   C4 9964   7.272   5.097  11.995 -0.0418 -0.4089  0.0285
  998DECAN   C5 9965   7.294   4.950  12.032  0.2999 -0.2856  0.3214
  998DECAN   C6 9966   7.415   4.872  11.978  0.3322 -0.1777  0.2394
  998DECAN   C7 9967   7.401   4.721  12.007 -0.3203 -0.1781 -0.0618
  998DECAN   C8 9968   7.370   4.699  12.156  0.1886 -0.1666  0.0493
  998DECAN   C9 9969   7.350   4.551  12.194  0.5453 -0.2222  0.0185
  998DECAN  C10 9970   7.297   4.543  12.338 -0.3813  0.2527 -0.2869
  999DECAN   C1 9971   4.971   9.441  12.866 -0.0562  0.4210  0.3572
  999DECAN   C2 9972   5.036   9.530  12.759 -0.0302 -0.0877 -0.0552
  999DECAN   C3 9973   4.941   9.608  12.667 -0.1444 -0.5500 -0.3290
  999DECAN   C4 9974   5.022   9.668  12.550  0.5239  0.0863  0.4549
  999DECAN   C5 9975   4.929   9.739  12.450  0.2905 -0.2701  0.4195
  999DECAN   C6 9976   4.797   9.664  12.423  0.3380 -0.0556 -0.4225
  999DECAN   C7 9977   4.713   9.698  12.299  0.0289  0.6530 -0.0260
  999DECAN   C8 9978   4.622   9.577  12.271 -0.2424  0.8138  0.1514
  999DECAN   C9 9979   4.530   9.545  12.391  0.3357  0.1391  0.4257
  999DECAN  C10 9980   4.448   9.416  12.374 -0.3850  0.7117 -0.5434
 1000DECAN   C1 9981   6.629   5.388   9.462 -0.0847 -0.3694 -0.6978
 1000DECAN   C2 9982   6.728   5.272   9.437  0.9791  0.4053 -0.1795
 1000DECAN   C3 9983   6.715   5.199   9.302 -0.3166  0.0080  0.1460
 1000DECAN   C4 9984   6.701   5.295   9.183  0.1220 -0.4121 -0.2537
 1000DECAN   C5 9985   6.697   5.227   9.045 -0.4140  0.0288 -0.4617
 1000DECAN   C6 9986   6.698   5.331   8.931 -0.1445  0.5140 -0.0184
 1000DECAN   C7 9987   6.829   5.406   8.897  0.0941  0.4246  0.6759
 1000DECAN   C8 9988   6.822   5.504   8.778  0.0252 -0.1972  0.1647
 1000DECAN   C9 9989   6.836   5.434   8.641  0.5826  0.0754  0.0821
 1000DECAN  C10 9990   6.829   5.511   8.508 -0.1388 -0.0528  0.0437
 1001DECAN   C1 9991   4.157  10.160   4.933  0.3502  0.4174 -0.2142
 1001DECAN   C2 9992   4.071  10.277   4.983 -0.4989  0.0726 -0.8344
 1001DECAN   C3 9993   4.160  10.402   5.003 -0.0122 -0.3399 -0.4087
 1001DECAN   C4 9994   4.075  10.528   5.024  0.4733 -0.1038  0.1922
 1001DECAN   C5 9995   3.954  10.508   5.118  0.2770 -0.5488 -0.1505
 1001DECAN   C6 9996   3.837  10.429   5.056 -0.3214 -0.0324  0.3168
 1001DECAN   C7 9997   3.728  10.405   5.162 -0.0925  0.1509  0.5959
 1001DECAN   C8 9998   3.597  10.345   5.107  0.2437  0.1223 -0.1808
 1001DECAN   C9 9999   3.629  10.216   5.029 -0.5620  0.0642 -0.4236
 1001DECAN  C1010000   3.515  10.185   4.931 -0.5046 -0.6056 -0.2794
 1002DECAN   C110001   6.191   9.379  11.985  0.0414  0.1398  0.1483
 1002DECAN   C210002   6.289   9.404  12.101 -0.4400  0.0529  0.5749
 1002DECAN   C310003   6.279   9.301  12.215 -0.8332  0.1180  0.6007
 1002DECAN   C410004   6.375   9.341  12.329 -0.2146  0.6256 -0.0900
 1002DECAN   C510005   6.392   9.232  12.436 -0.3118  0.3988 -0.3035
 1002DECAN   C610006   6.497   9.256  12.547 -0.1943  0.3586 -0.4055
 1002DECAN   C710007   6.466   9.371  12.645 -0.4661  0.0692 -0.1477
 1002DECAN   C810008   6.570   9.393  12.756 -0.6897 -0.1486  0.1057
 1002DECAN   C910009   6.561   9.539  12.804 -0.0710  0.0340 -0.3147
 1002DECAN  C1010010   6.658   9.573  12.918  0.1261 -0.2514 -0.3963
 1003DECAN   C110011   6.300   9.739   8.591 -0.2661 -0.2902 -0.1142
 1003DECAN   C210012   6.221   9.663   8.699 -0.0142 -0.0646  0.2293
 1003DECAN   C310013   6.151   9.759   8.797  0.0567 -0.0342  0.2507
 1003DECAN   C410014   6.061   9.695   8.905 -0.3330 -0.5330 -0.3659
 1003DECAN   C510015   5.989   9.790   9.003 -0.0388 -0.4114 -0.2636
 1003DECAN   C610016   5.902   9.729   9.115  0.2919  0.5577  0.5350
 1003DECAN   C710017   5.894   9.823   9.237  0.2719  0.7213  0.4086
 1003DECAN   C810018   5.819   9.778   9.364  0.2909  0.1207  0.2119
 1003DECAN   C910019   5.785   9.900   9.451  0.3323  0.0240  0.3633
 1003DECAN  C1010020   5.732   9.874   9.593  0.0029 -0.3237  0.1794
 1004DECAN   C110021  10.501   1.256   6.428 -0.3017  0.4104 -0.2253
 1004DECAN   C210022  10.510   1.286   6.578  0.1253 -0.6661 -0.0289
 1004DECAN   C310023  10.592   1.183   6.658  0.1414 -0.2750  0.4660
 1004DECAN   C410024  10.601   1.253   6.795  0.3159  0.4818  0.0711
 1004DECAN   C510025  10.642   1.400   6.772  0.1097  0.4732 -0.3628
 1004DECAN   C610026  10.630   1.488   6.898  0.2652 -0.2419  0.1595
 1004DECAN   C710027  10.668   1.636   6.878  0.8300 -0.4578 -0.4280
 1004DECAN   C810028  10.638   1.726   6.999  0.4176 -0.1926 -0.7253
 1004DECAN   C910029  10.665   1.877   6.984  0.1595 -0.0924 -0.2250
 1004DECAN  C1010030  10.580   1.925   6.864  0.7395  0.2966 -0.4851
 1005DECAN   C110031   5.291   9.644   8.504 -0.5806 -0.3917  0.3961
 1005DECAN   C210032   5.258   9.741   8.619 -0.4310 -0.5330  0.5596
 1005DECAN   C310033   5.246   9.890   8.580 -0.0435 -0.6154  0.1217
 1005DECAN   C410034   5.212   9.985   8.697  0.1765 -0.0950 -0.2341
 1005DECAN   C510035   5.262  10.127   8.666  0.0744  0.0139  0.1067
 1005DECAN   C610036   5.220  10.241   8.761  0.1529  0.4089 -0.3292
 1005DECAN   C710037   5.067  10.251   8.772  0.1546  0.1342 -0.0588
 1005DECAN   C810038   5.008  10.364   8.858 -0.2353 -0.1254  0.0199
 1005DECAN   C910039   5.021  10.331   9.008  0.1654  0.1261  0.0426
 1005DECAN  C1010040   4.984  10.445   9.105 -0.0604  0.2934 -0.2384
 1006DECAN   C110041   2.811  10.632  14.519  0.0082 -0.0668  0.6134
 1006DECAN   C210042   2.789  10.774  14.574 -0.5502  0.1171 -0.0622
 1006DECAN   C310043   2.922  10.851  14.558 -0.4107 -0.2032 -0.4571
 1006DECAN   C410044   2.914  10.993  14.616  0.8867 -0.1897 -0.2902
 1006DECAN   C510045   3.049  11.063  14.639  0.7916  0.0285 -0.3877
 1006DECAN   C610046   3.041  11.210  14.685  0.3002 -0.1726  0.1680
 1006DECAN   C710047   2.984  11.224  14.827  0.1835 -0.1153  0.1157
 1006DECAN   C810048   2.911   0.109  14.871  0.1619  0.1798 -0.7813
 1006DECAN   C910049   2.776   0.126  14.798 -0.3060 -0.0052  0.0356
 1006DECAN  C1010050   2.696   0.251  14.837 -0.3100  0.0334 -0.0971
 1007DECAN   C110051   8.237   0.408  14.591 -0.0880 -0.5300  0.0816
 1007DECAN   C210052   8.084   0.393  14.596 -0.1720  0.3415  0.2798
 1007DECAN   C310053   8.043   0.273  14.683 -0.1524  0.1280 -0.0010
 1007DECAN   C410054   7.895   0.280  14.726 -0.0026 -0.1414  0.5700
 1007DECAN   C510055   7.843   0.159  14.805  0.3942  0.0756  1.1675
 1007DECAN   C610056   7.693   0.177  14.836  0.2435  0.0015  0.4925
 1007DECAN   C710057   7.614   0.183  14.704 -0.0066 -0.4989  0.6179
 1007DECAN   C810058   7.466   0.216  14.731  0.0850  0.2450  0.2457
 1007DECAN   C910059   7.393   0.094  14.791  0.1711  0.1519  0.1596
 1007DECAN  C1010060   7.245   0.122  14.820  0.1247  0.0193  0.0530
 1008DECAN   C110061   4.699   2.075  12.468 -0.0591  0.0487 -0.1161
 1008DECAN   C210062   4.775   1.974  12.557  0.5642  0.1699 -0.5028
 1008DECAN   C310063   4.690   1.851  12.594 -0.3395  1.0782  0.4955
 1008DECAN   C410064   4.768   1.743  12.671 -0.7101  0.4191 -0.0429
 1008DECAN   C510065   4.690   1.611  12.682  0.3699 -0.2231  0.1252
 1008DECAN   C610066   4.758   1.495  12.755 -0.2004 -0.4389  0.3190
 1008DECAN   C710067   4.652   1.386  12.781 -0.3334 -0.2600  0.5311
 1008DECAN   C810068   4.701   1.255  12.846 -0.8672 -0.4158  0.6198
 1008DECAN   C910069   4.756   1.277  12.988  0.2603  0.3905  0.0709
 1008DECAN  C1010070   4.811   1.141  13.033  0.0472  0.0932 -0.5469
 1009DECAN   C110071   5.334  10.785   4.311 -0.1819 -0.4765  0.5936
 1009DECAN   C210072   5.247  10.719   4.202  0.3778 -0.1987 -0.0307
 1009DECAN   C310073   5.272  10.568   4.185 -0.0767 -0.2504 -0.2705
 1009DECAN   C410074   5.403  10.524   4.118  0.1316 -0.0104 -0.0276
 1009DECAN   C510075   5.426  10.372   4.129 -0.0792 -0.0780 -0.5236
 1009DECAN   C610076   5.556  10.322   4.063  0.2861  0.4056 -0.1708
 1009DECAN   C710077   5.612  10.199   4.137 -0.5481  0.1653  0.0771
 1009DECAN   C810078   5.517  10.142   4.243 -0.4153 -0.2299 -0.0162
 1009DECAN   C910079   5.481  10.242   4.355  0.0224  0.1618 -0.2212
 1009DECAN  C1010080   5.399  10.186   4.473  0.1413 -0.3530 -0.3772
 1010DECAN   C110081   3.216   1.997   7.633  0.0228 -0.5465 -0.1359
 1010DECAN   C210082   3.168   2.115   7.719 -0.2619 -0.7924  0.0449
 1010DECAN   C310083   3.076   2.087   7.840 -0.3817  0.0052  0.1412
 1010DECAN   C410084   2.942   2.041   7.781  0.1499 -0.8540 -0.4149
 1010DECAN   C510085   2.876   2.138   7.681  0.1472 -0.4833 -0.0524
 1010DECAN   C610086   2.756   2.102   7.593 -0.0742  0.1494 -0.0192
 1010DECAN   C710087   2.613   2.134   7.642 -0.1306 -0.2337  0.0724
 1010DECAN   C810088   2.498   2.100   7.546 -0.1806  1.0808 -0.3444
 1010DECAN   C910089   2.351   2.108   7.591 -0.2277 -0.4999 -0.1748
 1010DECAN  C1010090   2.327   2.253   7.636  0.0443 -0.5235  0.0504
 1011DECAN   C110091   9.917   7.909  11.935  0.0971  0.1645  0.8777
 1011DECAN   C210092   9.803   7.899  12.037 -0.2446  0.0632  0.4902
 1011DECAN   C310093   9.685   7.810  11.995 -0.3064  0.4069 -0.0686
 1011DECAN   C410094   9.565   7.783  12.087  0.0130 -0.5164  0.0891
 1011DECAN   C510095   9.433   7.789  12.007  0.1325 -0.6695 -0.1208
 1011DECAN   C610096   9.306   7.740  12.078  0.3307 -0.1936  0.5743
 1011DECAN   C710097   9.179   7.757  11.992  0.1443 -0.6545  0.7547
 1011DECAN   C810098   9.049   7.719  12.065  0.0347 -0.0529  0.8789
 1011DECAN   C910099   9.055   7.590  12.149  0.5456 -0.2601  0.5318
 1011DECAN  C1010100   8.929   7.566  12.235  0.0939 -0.2116 -0.1107
 1012DECAN   C110101   5.460   0.029   6.041  0.0646  0.6420  0.0591
 1012DECAN   C210102   5.306   0.042   6.048 -0.0184 -0.3900  0.2688
 1012DECAN   C310103   5.252   0.084   6.186  0.3226 -0.0436  0.2990
 1012DECAN   C410104   5.098   0.070   6.187  0.2921  0.1688 -0.5732
 1012DECAN   C510105   5.018   0.174   6.106 -0.3488  0.4763  0.4489
 1012DECAN   C610106   4.867   0.145   6.097 -0.1486 -0.3975 -0.1654
 1012DECAN   C710107   4.774   0.266   6.075  0.4908  0.1702  0.2314
 1012DECAN   C810108   4.631   0.209   6.073  0.4825  0.2052 -0.0600
 1012DECAN   C910109   4.531   0.326   6.060 -0.0911 -0.3176 -0.4134
 1012DECAN  C1010110   4.383   0.283   6.049 -0.3087  0.3254 -0.0626
 1013DECAN   C110111   4.746   6.735   7.174 -0.6223 -0.2122 -0.4446
 1013DECAN   C210112   4.747   6.583   7.196 -0.1254 -0.1199  0.1710
 1013DECAN   C310113   4.769   6.555   7.346 -0.4222  0.2581  0.2847
 1013DECAN   C410114   4.832   6.421   7.387 -0.3706  0.3063  0.3642
 1013DECAN   C510115   4.757   6.304   7.321  0.2163  0.0333  0.1696
 1013DECAN   C610116   4.814   6.168   7.363 -0.2234 -0.1540  0.1596
 1013DECAN   C710117   4.754   6.043   7.296  0.1217 -0.4263  0.3505
 1013DECAN   C810118   4.606   6.017   7.329 -0.0663  0.5451  0.3019
 1013DECAN   C910119   4.557   5.875   7.299  0.1128  0.5552 -0.0412
 1013DECAN  C1010120   4.410   5.853   7.339  0.2464 -0.0745  0.1165
 1014DECAN   C110121   7.642   4.788   7.503 -0.0923 -0.1019  0.1951
 1014DECAN   C210122   7.704   4.701   7.613 -0.1367  0.3285  0.5668
 1014DECAN   C310123   7.654   4.555   7.603  0.3985  0.1825 -0.0586
 1014DECAN   C410124   7.525   4.532   7.683  0.1604 -0.3125 -0.5789
 1014DECAN   C510125   7.471   4.388   7.682  0.2544 -0.3556  0.2519
 1014DECAN   C610126   7.331   4.374   7.743  0.0471 -0.3528 -0.2246
 1014DECAN   C710127   7.311   4.228   7.789  0.3235 -0.4404 -0.3797
 1014DECAN   C810128   7.198   4.211   7.892  0.4203 -0.1297 -0.2205
 1014DECAN   C910129   7.252   4.259   8.028 -0.3997  0.5011 -0.1096
 1014DECAN  C1010130   7.298   4.405   8.046 -0.0310  0.3579  0.1185
 1015DECAN   C110131   7.122   8.861  12.914 -0.5560 -0.0693 -0.0987
 1015DECAN   C210132   7.000   8.953  12.894 -0.0895  0.4503 -0.5752
 1015DECAN   C310133   6.877   8.868  12.856  0.0502 -0.3245  0.6498
 1015DECAN   C410134   6.751   8.954  12.838  0.3205 -0.0713 -0.0522
 1015DECAN   C510135   6.613   8.886  12.829  0.1169  0.3272  0.0270
 1015DECAN   C610136   6.490   8.979  12.838 -0.2078 -0.0938 -0.0472
 1015DECAN   C710137   6.356   8.904  12.854 -0.2370 -0.1471 -0.5294
 1015DECAN   C810138   6.248   9.014  12.854  0.3216  0.4202  0.3028
 1015DECAN   C910139   6.206   9.074  12.718  0.5739  0.5318  0.2741
 1015DECAN  C1010140   6.098   9.184  12.728  0.3943  0.3285  0.5878
 1016DECAN   C110141   3.233   8.104  13.242 -0.2075  0.1962  0.6109
 1016DECAN   C210142   3.166   8.228  13.181 -0.2567 -0.2010 -0.1520
 1016DECAN   C310143   3.205   8.252  13.034  0.1500  0.0906  0.0013
 1016DECAN   C410144   3.130   8.365  12.960  0.0173 -0.0529 -0.0821
 1016DECAN   C510145   3.139   8.359  12.806  0.4743  0.3051 -0.0714
 1016DECAN   C610146   3.030   8.436  12.729 -0.0369 -0.1609  0.1745
 1016DECAN   C710147   3.035   8.590  12.727 -0.3201 -0.1429  0.8170
 1016DECAN   C810148   2.919   8.643  12.640  0.4632  0.2582  0.0051
 1016DECAN   C910149   2.910   8.795  12.622 -0.1794  0.1784 -0.3687
 1016DECAN  C1010150   2.793   8.815  12.524 -0.4519  0.0085 -0.0818
 1017DECAN   C110151   9.026   7.859  14.148  0.3884 -0.1371 -0.4503
 1017DECAN   C210152   9.086   7.988  14.088 -0.2684  0.3753 -0.0322
 1017DECAN   C310153   9.072   8.098  14.194  0.4463  0.3164  0.1294
 1017DECAN   C410154   9.104   8.237  14.137 -0.1855  0.1737 -0.5869
 1017DECAN   C510155   9.252   8.271  14.109  0.0265  0.1415  0.4516
 1017DECAN   C610156   9.325   8.200  13.993 -0.3087  0.6756 -0.0907
 1017DECAN   C710157   9.469   8.235  13.953 -0.1814  0.2765  0.0159
 1017DECAN   C810158   9.547   8.139  13.861 -0.2819  0.0571  0.1601
 1017DECAN   C910159   9.678   8.197  13.805 -0.0655 -0.3247  0.2648
 1017DECAN  C1010160   9.776   8.103  13.732  0.5890  0.4540  0.1275
 1018DECAN   C110161   9.386   3.731   4.465  0.1790  0.5520  0.1234
 1018DECAN   C210162   9.249   3.734   4.394  0.0575 -0.3038  0.3096
 1018DECAN   C310163   9.249   3.696   4.245  0.0888  0.3788  0.1306
 1018DECAN   C410164   9.112   3.634   4.212  0.3252  0.0367 -0.2272
 1018DECAN   C510165   9.101   3.600   4.062  0.2158 -0.2425 -0.1561
 1018DECAN   C610166   9.012   3.480   4.024 -0.1321 -0.0805  0.1372
 1018DECAN   C710167   9.063   3.356   4.100 -0.2067 -0.0193  0.2871
 1018DECAN   C810168   8.981   3.228   4.076  0.0194 -0.1303  0.1049
 1018DECAN   C910169   8.832   3.251   4.106  0.2124  0.6105  0.5187
 1018DECAN  C1010170   8.762   3.350   4.011  0.6025 -0.3534 -0.7967
 1019DECAN   C110171   6.494   8.194   9.091 -0.2522 -0.3558 -0.4196
 1019DECAN   C210172   6.406   8.307   9.034 -0.0822  0.0494  0.1194
 1019DECAN   C310173   6.460   8.407   8.930 -0.4913  0.4180  0.2590
 1019DECAN   C410174   6.547   8.524   8.981  0.3961 -0.0953 -0.0608
 1019DECAN   C510175   6.577   8.634   8.878 -0.1507 -0.0524 -0.1770
 1019DECAN   C610176   6.446   8.694   8.823  0.0359  0.6087  0.0823
 1019DECAN   C710177   6.397   8.808   8.914 -0.5855  0.1275  0.3638
 1019DECAN   C810178   6.449   8.941   8.856 -0.3953 -0.1493 -0.1081
 1019DECAN   C910179   6.422   9.059   8.952 -0.1374  0.0223 -0.2472
 1019DECAN  C1010180   6.441   9.201   8.894 -0.2916 -0.0731 -0.5318
 1020DECAN   C110181   5.966  10.363   9.085 -0.4511 -0.1778  0.0423
 1020DECAN   C210182   5.849  10.306   9.167 -0.7437 -0.2959 -0.4551
 1020DECAN   C310183   5.845  10.380   9.302 -0.1243 -0.5102 -0.3130
 1020DECAN   C410184   5.840  10.531   9.274 -1.1252 -0.4248  0.2750
 1020DECAN   C510185   5.843  10.622   9.399 -1.1548  0.3403 -0.2757
 1020DECAN   C610186   5.875  10.772   9.387  0.8316 -0.0730 -0.4199
 1020DECAN   C710187   5.869  10.852   9.518  0.4207 -0.2979 -0.3005
 1020DECAN   C810188   5.881  11.005   9.507 -0.3889 -0.2148 -0.1103
 1020DECAN   C910189   5.938  11.076   9.631  0.1274 -0.7501 -0.0334
 1020DECAN  C1010190   5.843  11.076   9.752  0.1252 -0.8123 -0.0347
 1021DECAN   C110191   7.583   8.794   6.485 -0.2164  0.2114  0.2215
 1021DECAN   C210192   7.590   8.755   6.634  0.4434  0.1130  0.1674
 1021DECAN   C310193   7.454   8.756   6.707  0.2363  0.1175 -0.2155
 1021DECAN   C410194   7.389   8.891   6.668 -0.3384 -0.1224 -0.0903
 1021DECAN   C510195   7.270   8.945   6.750 -0.2480  0.1018 -0.1063
 1021DECAN   C610196   7.256   9.096   6.727 -0.1209  0.1204 -0.0608
 1021DECAN   C710197   7.137   9.153   6.805 -0.4078  0.1475 -0.5126
 1021DECAN   C810198   7.116   9.306   6.805  0.0979  0.2236  0.2487
 1021DECAN   C910199   7.115   9.366   6.663  0.4652  0.1165  0.1985
 1021DECAN  C1010200   7.159   9.514   6.662  1.2023 -0.1006 -0.4426
 1022DECAN   C110201   5.767   2.131  13.932 -0.2880  0.1790  0.4288
 1022DECAN   C210202   5.679   2.005  13.942  0.4991 -0.4359 -0.1796
 1022DECAN   C310203   5.730   1.910  14.052 -0.2820 -0.7899 -0.1159
 1022DECAN   C410204   5.871   1.853  14.030  0.0558 -0.0003 -0.0503
 1022DECAN   C510205   5.910   1.737  14.123  0.2522 -0.0577 -0.2035
 1022DECAN   C610206   6.063   1.718  14.128  0.2917  0.3909  0.5352
 1022DECAN   C710207   6.119   1.605  14.216  0.1069  0.1878  0.3929
 1022DECAN   C810208   6.272   1.610  14.230  0.2022 -0.3442 -0.3638
 1022DECAN   C910209   6.333   1.505  14.325  0.3615  0.2475  0.1946
 1022DECAN  C1010210   6.482   1.534  14.350  0.3576  0.4819 -0.0468
 1023DECAN   C110211   6.821   4.171  10.778  0.1399  0.1068 -0.3967
 1023DECAN   C210212   6.745   4.250  10.886  0.1511 -0.6561  0.1728
 1023DECAN   C310213   6.776   4.223  11.035  0.5423  0.6011  0.3334
 1023DECAN   C410214   6.672   4.279  11.134 -0.2158 -0.3169  0.0820
 1023DECAN   C510215   6.709   4.241  11.279  0.5294  0.1719  0.0270
 1023DECAN   C610216   6.602   4.283  11.382 -0.1230 -0.6379 -0.3132
 1023DECAN   C710217   6.624   4.210  11.516  0.0646 -0.0634 -0.0302
 1023DECAN   C810218   6.519   4.244  11.624  0.0646  0.0537 -0.0668
 1023DECAN   C910219   6.379   4.244  11.559  0.0745 -0.1271 -0.0893
 1023DECAN  C1010220   6.264   4.304  11.640 -0.0581  0.3795 -0.6403
 1024DECAN   C110221   7.838   5.994  10.943 -0.2124  0.0447  0.5089
 1024DECAN   C210222   7.697   6.042  10.981 -0.0671  0.0135  1.0994
 1024DECAN   C310223   7.683   6.194  10.959 -0.2921 -0.2041 -0.3702
 1024DECAN   C410224   7.574   6.267  11.039 -0.0256  0.0086 -0.1976
 1024DECAN   C510225   7.540   6.412  10.997 -0.2621 -0.1679 -0.6217
 1024DECAN   C610226   7.418   6.471  11.069 -0.1362  0.0649 -0.6003
 1024DECAN   C710227   7.416   6.623  11.042 -0.1100  0.1106 -0.3494
 1024DECAN   C810228   7.315   6.707  11.121  0.1192  0.1328 -0.0782
 1024DECAN   C910229   7.168   6.666  11.099  0.0367  0.4116 -0.0457
 1024DECAN  C1010230   7.061   6.749  11.173 -0.3362 -0.0912 -0.0168
 1025DECAN   C110231   2.476   3.553  12.666 -0.4665  0.1956  0.3032
 1025DECAN   C210232   2.367   3.643  12.725 -0.2721  0.5657  0.0981
 1025DECAN   C310233   2.224   3.627  12.670 -0.1330 -0.2387 -0.0349
 1025DECAN   C410234   2.232   3.636  12.516  0.1867 -0.1063 -0.0100
 1025DECAN   C510235   2.092   3.609  12.457 -0.0418 -0.0725  0.5110
 1025DECAN   C610236   2.067   3.686  12.326 -0.1897 -0.7343  0.1498
 1025DECAN   C710237   2.178   3.638  12.230 -0.1080 -0.0554 -0.0971
 1025DECAN   C810238   2.326   3.671  12.256 -0.1999  0.2213  0.0823
 1025DECAN   C910239   2.436   3.614  12.165 -0.3243 -0.3228  0.2640
 1025DECAN  C1010240   2.579   3.665  12.193 -0.3809  0.3355 -0.5892
 1026DECAN   C110241   8.482  10.037  13.794  0.6519  0.2495 -0.5542
 1026DECAN   C210242   8.572  10.088  13.679  0.6600  0.8175 -0.3017
 1026DECAN   C310243   8.506  10.179  13.574 -0.2916 -0.1295 -0.5438
 1026DECAN   C410244   8.455  10.311  13.634  0.0520 -0.4643  0.5017
 1026DECAN   C510245   8.354  10.296  13.749 -0.1988  0.0425  0.3464
 1026DECAN   C610246   8.318  10.424  13.828 -0.1465  0.2672  0.0083
 1026DECAN   C710247   8.443  10.481  13.898 -0.2218  0.2046  0.1959
 1026DECAN   C810248   8.401  10.588  14.000 -0.2382  0.3502  0.0365
 1026DECAN   C910249   8.517  10.634  14.091  0.1186 -0.3886 -0.0368
 1026DECAN  C1010250   8.470  10.716  14.212 -0.1390 -0.3019 -0.1947
 1027DECAN   C110251   8.760   1.438  15.144  0.3656  0.0185  0.3429
 1027DECAN   C210252   8.888   1.509  15.096  0.4169 -0.4148 -0.1624
 1027DECAN   C310253   8.876   1.571  14.955 -0.3902  0.0149  0.0908
 1027DECAN   C410254   9.008   1.631  14.904 -0.8451  0.9941  0.0570
 1027DECAN   C510255   9.004   1.708  14.770 -0.3288  0.0798 -0.4916
 1027DECAN   C610256   9.104   1.824  14.759 -0.0639 -0.0923  0.0182
 1027DECAN   C710257   9.068   1.911  14.880 -0.2051  0.2477 -0.2650
 1027DECAN   C810258   9.173   2.013  14.928  0.0436 -0.1116 -0.0443
 1027DECAN   C910259   9.130   2.097  15.050  0.3601 -0.4252  0.2842
 1027DECAN  C1010260   9.224   2.208  15.100  0.1150 -0.4606  0.8257
 1028DECAN   C110261   2.688   2.973   8.865 -0.0050 -0.1614 -0.4991
 1028DECAN   C210262   2.830   2.976   8.925 -0.5112 -0.3219  0.7489
 1028DECAN   C310263   2.872   3.113   8.980 -0.8675  0.0782  0.0316
 1028DECAN   C410264   2.767   3.176   9.074 -0.4831 -0.2379  0.6773
 1028DECAN   C510265   2.760   3.329   9.081 -0.0698 -0.2063  0.4204
 1028DECAN   C610266   2.880   3.374   9.168 -0.0342 -0.3122  0.4259
 1028DECAN   C710267   2.860   3.522   9.203 -0.2136 -0.2353  0.0096
 1028DECAN   C810268   2.991   3.595   9.167 -0.1459 -0.0571  0.6007
 1028DECAN   C910269   2.981   3.743   9.209 -0.0081  0.0851  0.1457
 1028DECAN  C1010270   3.108   3.822   9.173 -0.0719  0.1655  0.0973
 1029DECAN   C110271   8.227   6.676  13.772  0.3396 -0.1288 -0.4803
 1029DECAN   C210272   8.082   6.726  13.792  0.2106 -0.8044  0.3123
 1029DECAN   C310273   7.959   6.638  13.764 -0.3166  0.2084 -0.5716
 1029DECAN   C410274   7.827   6.674  13.835 -0.0616  0.9334 -0.4527
 1029DECAN   C510275   7.716   6.574  13.797 -0.1705  0.8768  0.0049
 1029DECAN   C610276   7.701   6.544  13.646  0.0359  0.3368  0.0863
 1029DECAN   C710277   7.561   6.487  13.616  0.2260 -0.1259  0.0762
 1029DECAN   C810278   7.447   6.568  13.681 -0.0339 -0.5517  0.1573
 1029DECAN   C910279   7.304   6.519  13.650 -0.3464  0.5166 -0.1522
 1029DECAN  C1010280   7.196   6.621  13.688 -0.5722  0.2254 -0.0078
 1030DECAN   C110281   3.779  10.074  10.051  0.3440  0.1187  0.0604
 1030DECAN   C210282   3.746  10.149  10.181 -0.3112 -0.4493  0.2315
 1030DECAN   C310283   3.860  10.252  10.193 -0.6443 -0.0261 -0.2013
 1030DECAN   C410284   3.861  10.350  10.074 -0.6654 -0.0974 -0.2609
 1030DECAN   C510285   3.930  10.292   9.949  0.5003  0.2023  0.2281
 1030DECAN   C610286   3.923  10.384   9.826  0.2406  0.2570  0.2823
 1030DECAN   C710287   4.050  10.471   9.827  0.4557 -0.0555  0.3514
 1030DECAN   C810288   4.085  10.508   9.682  0.0034  0.5421  0.3922
 1030DECAN   C910289   4.207  10.598   9.659 -0.0744  0.6128  0.2559
 1030DECAN  C1010290   4.232  10.587   9.507 -0.6257  0.0318  0.2060
 1031DECAN   C110291   1.499   6.104  14.291  0.1479  0.3285 -0.0163
 1031DECAN   C210292   1.506   6.256  14.266  0.1228  0.3342  0.0104
 1031DECAN   C310293   1.623   6.311  14.182  0.2138 -0.0660 -0.1308
 1031DECAN   C410294   1.630   6.465  14.186 -0.2643 -0.0427 -0.0687
 1031DECAN   C510295   1.709   6.517  14.064 -0.4912 -1.1087 -0.6873
 1031DECAN   C610296   1.857   6.477  14.074 -0.2077  0.1209  0.2980
 1031DECAN   C710297   1.911   6.484  13.930 -0.5283 -1.0824  0.1087
 1031DECAN   C810298   2.057   6.438  13.911 -0.1464  0.0208  0.2870
 1031DECAN   C910299   2.090   6.290  13.935 -0.1372 -0.0673 -0.2565
 1031DECAN  C1010300   2.237   6.247  13.945 -0.1171 -0.0510 -0.4849
 1032DECAN   C110301   8.117   3.962   4.245  0.9697 -0.0985  0.2049
 1032DECAN   C210302   8.089   3.996   4.097 -0.0795 -0.0056  0.4237
 1032DECAN   C310303   8.075   4.144   4.059  0.3044 -0.2030 -0.4945
 1032DECAN   C410304   7.975   4.227   4.141  0.3061 -0.1929 -0.5026
 1032DECAN   C510305   8.003   4.378   4.142 -0.0887 -0.1190 -0.4071
 1032DECAN   C610306   8.001   4.443   4.002  0.0500  0.2550 -0.2400
 1032DECAN   C710307   8.051   4.588   3.998 -0.2197  0.3372 -0.6848
 1032DECAN   C810308   8.204   4.600   4.012 -0.2648 -0.0207  0.1700
 1032DECAN   C910309   8.261   4.722   3.937 -0.0967 -0.3463 -0.2413
 1032DECAN  C1010310   8.411   4.691   3.921  0.0637  0.3190 -0.0443
 1033DECAN   C110311   3.562   9.540   4.649  0.7305  0.0793  0.0257
 1033DECAN   C210312   3.490   9.404   4.659  0.6485  0.1352  0.1908
 1033DECAN   C310313   3.514   9.305   4.544  0.1764 -0.0948  0.2859
 1033DECAN   C410314   3.420   9.186   4.567  0.3464 -0.3469 -0.2904
 1033DECAN   C510315   3.459   9.066   4.479 -0.0505 -0.5656 -0.1726
 1033DECAN   C610316   3.603   9.017   4.497  0.1753  0.1749  0.0746
 1033DECAN   C710317   3.618   8.869   4.456  0.2119  0.1802  0.0685
 1033DECAN   C810318   3.761   8.811   4.451  0.0760 -0.1907  0.4085
 1033DECAN   C910319   3.765   8.669   4.392 -0.1672 -0.1930  0.3951
 1033DECAN  C1010320   3.696   8.670   4.255 -0.2141  0.2651  0.4228
 1034DECAN   C110321   3.403  10.929  11.169  0.2668 -0.2379  0.8679
 1034DECAN   C210322   3.371  10.782  11.138 -0.0085 -0.0544  0.2700
 1034DECAN   C310323   3.284  10.742  11.016  0.6107 -0.2500 -0.1127
 1034DECAN   C410324   3.336  10.761  10.873 -0.2665  0.1780 -0.3806
 1034DECAN   C510325   3.253  10.692  10.763  0.0968 -0.6699 -0.1232
 1034DECAN   C610326   3.326  10.701  10.628 -0.0525 -0.2931 -0.1790
 1034DECAN   C710327   3.327  10.850  10.591 -0.3489 -0.2988 -0.2103
 1034DECAN   C810328   3.426  10.936  10.672  0.2561 -0.4014 -0.8333
 1034DECAN   C910329   3.417  11.089  10.674  0.2472 -0.4038  0.5787
 1034DECAN  C1010330   3.529  11.152  10.759 -0.1053  0.4854  0.3987
 1035DECAN   C110331  11.382   5.054   9.661  0.1676  0.1427  0.1166
 1035DECAN   C210332  11.316   5.134   9.547 -0.0685 -0.0548  0.1152
 1035DECAN   C310333  11.397   5.121   9.417  0.2848  0.1372  0.3167
 1035DECAN   C410334  11.335   5.186   9.292  0.1387 -0.2125  0.2042
 1035DECAN   C510335  11.369   5.130   9.153  0.0174 -0.0329  0.1008
 1035DECAN   C610336  11.329   4.981   9.151  1.1432 -0.3423 -0.6857
 1035DECAN   C710337  11.365   4.901   9.025  0.9190 -0.6021 -0.5867
 1035DECAN   C810338  11.321   4.966   8.892 -0.0049  0.4335  0.2080
 1035DECAN   C910339  11.169   4.989   8.882 -0.0808 -0.0449  0.2193
 1035DECAN  C1010340  11.108   5.031   8.747  0.1796  0.0225  0.1203
 1036DECAN   C110341   4.811   6.638  14.147  0.5502  0.2099  0.1844
 1036DECAN   C210342   4.860   6.783  14.164 -0.0759  0.4737 -0.2371
 1036DECAN   C310343   5.003   6.800  14.111 -0.0908 -0.1631 -0.4937
 1036DECAN   C410344   5.066   6.936  14.147 -0.1224 -0.1089 -0.6416
 1036DECAN   C510345   5.045   7.049  14.044 -0.1124  0.2541 -0.2506
 1036DECAN   C610346   5.104   7.182  14.093 -0.5112  0.3146  0.0804
 1036DECAN   C710347   5.137   7.261  13.965 -0.1172 -0.2207 -0.1546
 1036DECAN   C810348   5.272   7.221  13.903 -0.0455  0.0460 -0.1723
 1036DECAN   C910349   5.285   7.073  13.864 -0.4681  0.0006 -0.1478
 1036DECAN  C1010350   5.421   7.044  13.799  0.0163  0.5046  0.6204
 1037DECAN   C110351   9.569  10.031   8.936 -0.3088 -0.0200  0.3911
 1037DECAN   C210352   9.658  10.129   9.015  0.0991  0.1263 -0.2457
 1037DECAN   C310353   9.803  10.085   9.043 -0.0290 -0.0847  0.0951
 1037DECAN   C410354   9.876  10.182   9.138 -0.1313  0.1529 -0.0666
 1037DECAN   C510355   9.844  10.187   9.289  0.1364  0.4172 -0.0168
 1037DECAN   C610356   9.693  10.177   9.319  0.1667  0.0356  0.0077
 1037DECAN   C710357   9.663  10.070   9.425  0.0069 -0.1349 -0.2065
 1037DECAN   C810358   9.515  10.037   9.446 -0.0152 -0.1712 -0.4232
 1037DECAN   C910359   9.434   9.974   9.330 -0.1063 -0.2429 -0.3218
 1037DECAN  C1010360   9.477   9.827   9.318 -0.2687 -0.3230  0.0585
 1038DECAN   C110361   3.766   5.314  11.849  0.1490  0.4237  0.0063
 1038DECAN   C210362   3.737   5.259  11.990  0.0259  0.3275 -0.0559
 1038DECAN   C310363   3.611   5.310  12.062 -0.3514 -0.0237 -0.4592
 1038DECAN   C410364   3.565   5.207  12.167 -0.3263 -0.0814 -0.5050
 1038DECAN   C510365   3.674   5.150  12.260 -0.4691 -0.2284 -0.4278
 1038DECAN   C610366   3.647   5.005  12.303 -0.1401 -0.1701 -0.0235
 1038DECAN   C710367   3.499   4.963  12.308 -0.2791  0.3217  0.0420
 1038DECAN   C810368   3.473   4.816  12.345 -0.1262  0.2852  0.0055
 1038DECAN   C910369   3.322   4.798  12.374 -0.0844 -0.5590 -0.2835
 1038DECAN  C1010370   3.279   4.669  12.446 -0.2343 -0.3974 -0.0836
 1039DECAN   C110371   4.555   4.599   5.562  0.2104  0.0477  0.5036
 1039DECAN   C210372   4.532   4.738   5.623 -0.0864  0.2415 -0.0519
 1039DECAN   C310373   4.492   4.726   5.771 -0.1140 -0.3757 -0.1071
 1039DECAN   C410374   4.460   4.859   5.842  0.5267 -0.2395 -0.0598
 1039DECAN   C510375   4.352   4.956   5.791  0.3870 -0.5504 -0.3657
 1039DECAN   C610376   4.212   4.893   5.776 -0.0967  0.2735  0.5439
 1039DECAN   C710377   4.102   4.991   5.734 -0.1043 -0.0607 -0.2374
 1039DECAN   C810378   3.970   4.921   5.695 -0.1918  0.0353 -0.1172
 1039DECAN   C910379   3.859   5.027   5.711  0.4986  0.6993  0.3427
 1039DECAN  C1010380   3.718   4.973   5.681  0.7275  0.1457  0.2405
 1040DECAN   C110381   4.519   3.690  11.184  0.1274 -0.3203  0.3775
 1040DECAN   C210382   4.604   3.818  11.197  0.0472 -0.2349  0.0559
 1040DECAN   C310383   4.720   3.834  11.097 -0.0442  0.2327  0.0225
 1040DECAN   C410384   4.795   3.969  11.105 -0.0275  0.2243  0.0090
 1040DECAN   C510385   4.899   3.995  10.995 -0.1170 -0.5130 -0.2606
 1040DECAN   C610386   5.020   3.900  11.006  0.6169  0.4500  0.1637
 1040DECAN   C710387   5.128   3.899  10.896  0.1339 -0.0260 -0.3127
 1040DECAN   C810388   5.221   3.783  10.935 -0.4074 -0.3602 -0.0044
 1040DECAN   C910389   5.141   3.654  10.964 -0.4019 -0.3012  0.2789
 1040DECAN  C1010390   5.219   3.568  11.065  0.3886  0.3789  0.2566
 1041DECAN   C110391   5.600   5.757  11.608 -0.4917 -0.0799 -0.0263
 1041DECAN   C210392   5.472   5.761  11.523 -0.3269  0.1658 -0.2661
 1041DECAN   C310393   5.345   5.764  11.610 -0.2044 -0.9149 -0.0393
 1041DECAN   C410394   5.223   5.842  11.557  0.0479 -0.2431  0.3574
 1041DECAN   C510395   5.164   5.790  11.424 -0.3856  0.0274  0.4419
 1041DECAN   C610396   5.046   5.879  11.381  0.4301  0.7269 -0.3872
 1041DECAN   C710397   4.965   5.851  11.253  0.2646 -0.3785 -0.0492
 1041DECAN   C810398   5.051   5.812  11.132 -0.3598 -0.9052 -0.3301
 1041DECAN   C910399   4.988   5.770  10.998  0.4358 -0.3400 -0.8976
 1041DECAN  C1010400   4.915   5.881  10.921  0.7837  0.2625 -0.3730
 1042DECAN   C110401   3.991   9.825  10.971  0.6376 -0.1849  0.2871
 1042DECAN   C210402   3.996   9.949  11.061  0.1995  0.1541 -0.1506
 1042DECAN   C310403   4.102  10.055  11.026 -0.0333  0.2859 -0.4559
 1042DECAN   C410404   4.242  10.000  11.060 -0.1051  0.2866 -0.1522
 1042DECAN   C510405   4.345  10.113  11.041  0.1511  0.0301 -0.2989
 1042DECAN   C610406   4.316  10.226  11.142 -0.1220  0.1070 -0.4642
 1042DECAN   C710407   4.400  10.354  11.129 -0.5642  0.4134 -0.3328
 1042DECAN   C810408   4.348  10.457  11.231 -0.4119  0.5261 -0.3671
 1042DECAN   C910409   4.431  10.586  11.236  0.1282  0.1983 -0.7747
 1042DECAN  C1010410   4.568  10.546  11.294 -0.0598  0.4506 -0.1367
 1043DECAN   C110411   3.818   5.092  14.469  0.3432 -0.2862 -0.5171
 1043DECAN   C210412   3.872   5.231  14.507  0.1258 -0.2030 -0.5134
 1043DECAN   C310413   4.004   5.267  14.436 -0.1832  0.3355 -0.8264
 1043DECAN   C410414   4.132   5.202  14.493 -0.4836  0.9603  0.6065
 1043DECAN   C510415   4.257   5.222  14.406 -0.8036  0.3091 -0.0149
 1043DECAN   C610416   4.289   5.372  14.390 -0.8811  0.2462 -0.7572
 1043DECAN   C710417   4.411   5.379  14.297  0.0095  0.1582  0.3862
 1043DECAN   C810418   4.462   5.522  14.273 -0.4036  0.2386 -0.0265
 1043DECAN   C910419   4.564   5.538  14.159 -0.1412 -0.1846  0.1486
 1043DECAN  C1010420   4.626   5.676  14.130  0.2678 -0.3580  0.1805
 1044DECAN   C110421   2.435   4.767   6.791 -0.3107 -0.0058  0.0322
 1044DECAN   C210422   2.343   4.666   6.862 -0.0355 -0.3546 -0.1016
 1044DECAN   C310423   2.383   4.517   6.864 -0.2942 -0.4269 -0.2523
 1044DECAN   C410424   2.520   4.512   6.933 -0.1576  0.5882 -0.4316
 1044DECAN   C510425   2.523   4.545   7.084  0.5951 -0.3269 -0.2388
 1044DECAN   C610426   2.653   4.510   7.159  0.3973  0.1393  0.3292
 1044DECAN   C710427   2.648   4.569   7.301 -0.1334  0.3055  0.2442
 1044DECAN   C810428   2.730   4.514   7.419 -0.4339 -0.5835  0.0464
 1044DECAN   C910429   2.714   4.588   7.553 -0.2550 -0.4658  0.0018
 1044DECAN  C1010430   2.581   4.562   7.624 -0.1997 -0.1101  0.2409
 1045DECAN   C110431  10.383   7.773  13.826 -0.0260 -0.8326 -0.4531
 1045DECAN   C210432  10.443   7.773  13.684 -0.0220  0.2421 -0.4615
 1045DECAN   C310433  10.326   7.721  13.599  0.0169 -0.2167 -0.2358
 1045DECAN   C410434  10.370   7.679  13.458  0.2565  0.2154 -0.2877
 1045DECAN   C510435  10.456   7.552  13.439 -0.0374 -0.1381  0.6988
 1045DECAN   C610436  10.466   7.516  13.290 -0.2279 -0.0408  0.6621
 1045DECAN   C710437  10.569   7.420  13.227  0.2415  0.8402  0.0585
 1045DECAN   C810438  10.544   7.378  13.081 -0.6243 -0.0795  0.4640
 1045DECAN   C910439  10.639   7.280  13.011 -0.9116  0.0359 -0.0883
 1045DECAN  C1010440  10.625   7.141  13.077 -0.1627  0.0351  0.0786
 1046DECAN   C110441   7.823   8.753  10.805 -0.1014  0.0669  0.4813
 1046DECAN   C210442   7.889   8.871  10.877 -0.2248 -0.0016  0.7056
 1046DECAN   C310443   7.879   9.006  10.804  0.2099 -0.3048  0.0821
 1046DECAN   C410444   7.986   9.104  10.856  0.0329  0.1373 -0.3786
 1046DECAN   C510445   7.955   9.174  10.990 -0.1081  0.1454 -0.4133
 1046DECAN   C610446   7.825   9.254  11.002 -0.0890  0.1522 -0.2573
 1046DECAN   C710447   7.826   9.404  10.966 -0.2212  0.1145 -0.4227
 1046DECAN   C810448   7.690   9.473  10.948 -0.5678 -0.3244  0.4588
 1046DECAN   C910449   7.604   9.405  10.840  0.0736  0.0979 -0.3300
 1046DECAN  C1010450   7.498   9.500  10.782 -0.1979  0.2546  0.4085
 1047DECAN   C110451   4.196   6.379   9.808  0.2479  0.2087 -0.1148
 1047DECAN   C210452   4.302   6.347   9.916  0.4292 -0.0388 -0.3629
 1047DECAN   C310453   4.242   6.358  10.058  0.2520  0.5750 -0.4789
 1047DECAN   C410454   4.360   6.329  10.152 -0.0354 -0.3514 -0.3957
 1047DECAN   C510455   4.319   6.324  10.301  0.1744 -0.6226 -0.3451
 1047DECAN   C610456   4.202   6.226  10.321  0.1099 -0.3396  0.7249
 1047DECAN   C710457   4.245   6.080  10.344  0.7801 -0.2481  0.0980
 1047DECAN   C810458   4.123   5.987  10.359 -0.1662  1.0007  0.3197
 1047DECAN   C910459   4.013   6.016  10.256 -0.3526 -0.4774  0.0816
 1047DECAN  C1010460   4.079   6.030  10.118 -0.0097 -0.9899  0.1916
 1048DECAN   C110461   5.088  10.840  13.122 -0.6455  1.0807  0.0247
 1048DECAN   C210462   5.142  10.915  12.998  0.1114 -0.2811 -0.5001
 1048DECAN   C310463   5.290  10.956  12.990  0.0194  0.1941  0.1363
 1048DECAN   C410464   5.319  11.026  12.856  0.2827 -0.4149 -0.1300
 1048DECAN   C510465   5.452  11.099  12.834 -0.0535  0.2688  0.0590
 1048DECAN   C610466   5.575  11.010  12.862 -0.2766 -0.1289 -0.2233
 1048DECAN   C710467   5.701  11.091  12.826 -0.2656  0.0083  0.1239
 1048DECAN   C810468   5.828  11.016  12.872 -0.0161  0.3071 -0.0749
 1048DECAN   C910469   5.845  10.988  13.022 -0.5710  0.1604 -0.0349
 1048DECAN  C1010470   5.740  10.899  13.090  0.5535 -0.6969  0.6176
 1049DECAN   C110471   8.773   4.122  11.435  0.3216 -0.8189  0.1119
 1049DECAN   C210472   8.901   4.076  11.508  0.4389 -0.6431  0.0169
 1049DECAN   C310473   8.987   4.189  11.566 -0.1848  0.0144 -0.3265
 1049DECAN   C410474   9.110   4.150  11.649 -0.3139  0.1206 -0.0856
 1049DECAN   C510475   9.182   4.254  11.737  0.3536 -0.1204 -0.3369
 1049DECAN   C610476   9.320   4.204  11.785  0.4453  0.1034 -0.3664
 1049DECAN   C710477   9.405   4.131  11.679 -0.2138 -0.4175 -0.5448
 1049DECAN   C810478   9.551   4.107  11.719 -0.2056 -0.1734 -0.4263
 1049DECAN   C910479   9.622   4.243  11.737 -0.1090 -0.3003  0.1753
 1049DECAN  C1010480   9.567   4.338  11.844 -0.0514  0.8087 -0.7543
 1050DECAN   C110481   7.831   3.203   9.100  0.4445  0.2065 -0.2942
 1050DECAN   C210482   7.852   3.213   8.948 -0.3333  0.4199 -0.3935
 1050DECAN   C310483   7.999   3.204   8.904 -0.2342 -0.1330  0.0378
 1050DECAN   C410484   8.010   3.237   8.754 -0.1737  0.0451  0.0810
 1050DECAN   C510485   7.955   3.127   8.661 -0.1939  0.0884  0.0417
 1050DECAN   C610486   7.958   3.147   8.508  0.0360  0.3367  0.0787
 1050DECAN   C710487   8.095   3.197   8.458  0.2924 -0.1800  0.2574
 1050DECAN   C810488   8.088   3.228   8.307  0.0928 -0.1076  0.2814
 1050DECAN   C910489   8.183   3.341   8.263 -0.6446  0.0729 -0.8868
 1050DECAN  C1010490   8.137   3.483   8.298  0.3190  0.0816  0.4402
 1051DECAN   C110491   4.285   0.751   5.916 -0.3990 -0.1608 -0.5160
 1051DECAN   C210492   4.376   0.665   5.827  0.1275  0.4526 -0.5743
 1051DECAN   C310493   4.527   0.693   5.836  0.1739 -0.1689  0.8248
 1051DECAN   C410494   4.593   0.612   5.723 -0.2752  0.4253  0.1337
 1051DECAN   C510495   4.574   0.692   5.592  0.1554  0.2278 -0.0523
 1051DECAN   C610496   4.624   0.604   5.476  0.2809  0.0134  0.1620
 1051DECAN   C710497   4.598   0.669   5.339 -0.0569 -0.1311  0.1584
 1051DECAN   C810498   4.626   0.584   5.213 -0.4635 -0.1490  0.0787
 1051DECAN   C910499   4.590   0.652   5.079  0.2354 -0.0501 -0.0630
 1051DECAN  C1010500   4.672   0.587   4.966  0.0801 -0.3503 -0.0038
 1052DECAN   C110501   2.871   2.283  15.164  0.0995  0.3517  0.1929
 1052DECAN   C210502   2.756   2.289  15.062  0.1464  0.1192  0.1250
 1052DECAN   C310503   2.659   2.169  15.062  0.2143  0.0639 -0.0110
 1052DECAN   C410504   2.554   2.180  14.951  0.2870 -0.1300 -0.0989
 1052DECAN   C510505   2.432   2.087  14.964  0.2649 -0.0486  0.2728
 1052DECAN   C610506   2.354   2.048  14.837 -0.0097 -0.7089  0.6380
 1052DECAN   C710507   2.273   1.919  14.861 -0.1549 -0.7163  0.1237
 1052DECAN   C810508   2.207   1.866  14.733  0.8542 -0.4871 -0.5020
 1052DECAN   C910509   2.139   1.733  14.770 -0.0831  0.0645 -0.2173
 1052DECAN  C1010510   2.033   1.677  14.673 -0.0099 -0.3027 -0.0878
 1053DECAN   C110511   6.788  10.565  12.488 -0.6226 -1.1863  0.1432
 1053DECAN   C210512   6.779  10.631  12.627  0.0558  0.1027 -0.4056
 1053DECAN   C310513   6.649  10.598  12.702  0.5186 -0.4060  0.1863
 1053DECAN   C410514   6.617  10.669  12.835  0.2524 -0.4597  0.1522
 1053DECAN   C510515   6.477  10.651  12.895  0.0895 -0.4993 -0.2383
 1053DECAN   C610516   6.365  10.701  12.801 -0.0661  0.1796  0.3000
 1053DECAN   C710517   6.228  10.697  12.871 -0.0838  0.2427  0.2683
 1053DECAN   C810518   6.198  10.813  12.968 -0.0214 -0.1617  0.7705
 1053DECAN   C910519   6.281  10.809  13.098  0.8986 -0.3626  0.1873
 1053DECAN  C1010520   6.204  10.873  13.215  0.6820  0.2069 -0.2644
 1054DECAN   C110521   3.994   0.306   6.023 -0.5646 -0.4906  0.4672
 1054DECAN   C210522   3.925   0.410   6.113  0.2473  0.5432 -0.0707
 1054DECAN   C310523   3.941   0.373   6.262  0.1014  0.5136 -0.0618
 1054DECAN   C410524   3.847   0.446   6.360  0.1113 -0.1293  0.4301
 1054DECAN   C510525   3.697   0.450   6.326  0.1938 -0.0798  0.0709
 1054DECAN   C610526   3.609   0.546   6.408  0.2751  0.4403 -0.4437
 1054DECAN   C710527   3.593   0.500   6.554 -0.8905  0.3358 -0.5933
 1054DECAN   C810528   3.535   0.359   6.571 -0.1480  0.1085  0.1616
 1054DECAN   C910529   3.516   0.335   6.722  0.3759  0.1015  0.2274
 1054DECAN  C1010530   3.478   0.190   6.757  0.1963  0.0326 -0.2476
 1055DECAN   C110531   7.746  10.258   4.806 -0.1192 -0.2280 -0.7946
 1055DECAN   C210532   7.620  10.335   4.850  0.1297 -0.3568  0.1604
 1055DECAN   C310533   7.543  10.246   4.950 -0.2535  0.0118  0.1935
 1055DECAN   C410534   7.427  10.319   5.021  0.2542  0.4700  0.5560
 1055DECAN   C510535   7.331  10.215   5.084  0.1988  0.1548 -0.0433
 1055DECAN   C610536   7.207  10.275   5.152  0.2860  0.0306  0.2240
 1055DECAN   C710537   7.099  10.168   5.180  0.0050  0.1041 -0.5658
 1055DECAN   C810538   6.973  10.236   5.237 -0.4502 -0.8646 -0.3972
 1055DECAN   C910539   6.867  10.134   5.282 -0.3772 -0.8629 -0.2271
 1055DECAN  C1010540   6.738  10.204   5.327  0.0982 -0.2160  0.1594
 1056DECAN   C110541   5.781   2.436   7.709  0.0672 -0.1138  0.7330
 1056DECAN   C210542   5.772   2.351   7.837 -0.3007 -0.4248  0.5007
 1056DECAN   C310543   5.880   2.262   7.901 -0.0042 -0.2611  0.2289
 1056DECAN   C410544   5.871   2.121   7.841 -0.0361 -0.1333 -0.0709
 1056DECAN   C510545   5.944   2.013   7.924 -0.0258 -0.1781 -0.1380
 1056DECAN   C610546   5.925   2.009   8.077  1.1503 -0.3674  0.0099
 1056DECAN   C710547   6.002   2.110   8.165  0.3230 -0.3071  0.6791
 1056DECAN   C810548   5.976   2.065   8.310  0.3673 -1.0699  0.4550
 1056DECAN   C910549   5.851   2.125   8.376  0.1557 -0.6714 -0.3007
 1056DECAN  C1010550   5.725   2.106   8.289 -0.1380 -0.3405  0.0494
 1057DECAN   C110551   2.951   6.292   9.289  0.5593  0.1880 -0.4097
 1057DECAN   C210552   2.937   6.154   9.355 -0.0120  0.3745 -0.1317
 1057DECAN   C310553   2.863   6.051   9.266 -0.3403  0.3291  0.1937
 1057DECAN   C410554   2.844   5.917   9.340  0.7994 -0.3053 -0.6378
 1057DECAN   C510555   2.963   5.831   9.384  0.5294 -0.4022 -0.1008
 1057DECAN   C610556   3.057   5.884   9.495  0.0821  0.2884 -0.0514
 1057DECAN   C710557   3.162   5.786   9.549 -0.1146  0.1541  0.0901
 1057DECAN   C810558   3.264   5.851   9.644 -0.0073  0.1116  0.0048
 1057DECAN   C910559   3.360   5.750   9.709 -0.1201 -0.2267 -0.3455
 1057DECAN  C1010560   3.461   5.827   9.796 -1.1614  0.0498  0.6415
 1058DECAN   C110561   4.828   9.957   8.518 -0.0334  0.3310 -0.4051
 1058DECAN   C210562   4.814   9.813   8.464 -0.3083  0.1687  0.0865
 1058DECAN   C310563   4.892   9.721   8.559 -0.7555 -0.1721  0.1298
 1058DECAN   C410564   4.854   9.573   8.545 -0.0384 -0.3452 -0.0486
 1058DECAN   C510565   4.949   9.502   8.643 -0.1857  0.1810  0.4821
 1058DECAN   C610566   4.949   9.348   8.646  0.8384  0.1421 -0.6679
 1058DECAN   C710567   5.070   9.284   8.716  0.5906  0.0868 -0.2889
 1058DECAN   C810568   5.099   9.140   8.670  0.1219 -0.1290  0.0866
 1058DECAN   C910569   4.989   9.036   8.700  0.3382 -0.4424 -0.1988
 1058DECAN  C1010570   4.942   9.035   8.847  0.5407  0.0436 -0.1269
 1059DECAN   C110571   7.640  10.245  10.547  0.3721  0.1727 -0.5450
 1059DECAN   C210572   7.770  10.174  10.589 -0.0094 -0.1055  0.1824
 1059DECAN   C310573   7.866  10.261  10.671  0.1190  0.1005 -0.1833
 1059DECAN   C410574   8.018  10.233  10.676  0.1025  0.0672  0.2095
 1059DECAN   C510575   8.076  10.343  10.767 -0.1470 -0.0565  0.5201
 1059DECAN   C610576   8.117  10.475  10.698  0.2822 -0.3490  0.2047
 1059DECAN   C710577   8.222  10.457  10.588  0.5379  0.1737  0.3600
 1059DECAN   C810578   8.337  10.363  10.631  0.4104 -0.1477  0.0090
 1059DECAN   C910579   8.449  10.447  10.696  0.4214 -0.0052 -0.1923
 1059DECAN  C1010580   8.573  10.365  10.736  0.4870 -0.1099 -0.6051
 1060DECAN   C110581   6.517  11.230  13.455  0.1210 -0.1612 -0.5984
 1060DECAN   C210582   6.587   0.093  13.540 -0.2083 -0.3669 -0.0556
 1060DECAN   C310583   6.734   0.051  13.560 -0.1745  0.1434  0.8257
 1060DECAN   C410584   6.816   0.127  13.666  0.3965  0.3633  0.2310
 1060DECAN   C510585   6.966   0.096  13.652  0.2675 -0.4781  0.6497
 1060DECAN   C610586   7.047   0.207  13.721 -0.6192  0.5774  0.0261
 1060DECAN   C710587   6.987   0.206  13.863  0.3778 -0.0558  0.4580
 1060DECAN   C810588   7.036   0.334  13.932 -0.1713  0.1870  0.4071
 1060DECAN   C910589   6.972   0.457  13.864  0.4508  0.2476 -0.0790
 1060DECAN  C1010590   7.026   0.588  13.924 -0.0338  0.2654  0.3186
 1061DECAN   C110591   6.292   5.239   3.899  0.2429 -0.0401 -0.0164
 1061DECAN   C210592   6.236   5.377   3.860  0.0828 -0.1035 -0.0106
 1061DECAN   C310593   6.289   5.483   3.958 -0.7227  0.3251 -0.0252
 1061DECAN   C410594   6.254   5.624   3.908  0.1097  0.6200  0.1994
 1061DECAN   C510595   6.275   5.740   4.007 -0.1758  0.4335  0.4815
 1061DECAN   C610596   6.421   5.766   4.049  0.0634  0.0050 -0.0695
 1061DECAN   C710597   6.516   5.838   3.950  0.4602  0.0071  0.3119
 1061DECAN   C810598   6.665   5.846   3.990  0.4390  0.0034  0.3935
 1061DECAN   C910599   6.749   5.944   3.907 -0.3328  0.1544 -0.2210
 1061DECAN  C1010600   6.898   5.953   3.942 -0.2890 -0.0079 -0.3652
 1062DECAN   C110601  10.039   1.488  12.146  0.0564  0.2815  0.1816
 1062DECAN   C210602  10.105   1.476  12.007 -0.1153  0.2057  0.1076
 1062DECAN   C310603  10.112   1.326  11.974  0.1886  0.1804  0.2805
 1062DECAN   C410604  10.204   1.238  12.061  0.1894 -0.3534 -0.2546
 1062DECAN   C510605  10.217   1.100  11.994  0.0946 -0.3156 -0.3507
 1062DECAN   C610606  10.255   0.992  12.097  0.3722  0.1926  0.0812
 1062DECAN   C710607  10.167   0.973  12.222  0.1310  0.3006 -0.0727
 1062DECAN   C810608  10.167   0.831  12.279  0.0493  0.1960 -0.3307
 1062DECAN   C910609  10.066   0.816  12.394 -0.1259  0.1011 -0.4973
 1062DECAN  C1010610  10.075   0.914  12.512 -0.0259 -0.6021  0.0833
 1063DECAN   C110611   1.159   2.295   8.333  0.0180 -0.2986 -0.0337
 1063DECAN   C210612   1.105   2.440   8.330 -0.1603 -0.3583  0.2654
 1063DECAN   C310613   1.119   2.520   8.460 -0.0559  0.4989 -0.2667
 1063DECAN   C410614   1.267   2.536   8.497 -0.0709  0.1352 -0.0398
 1063DECAN   C510615   1.283   2.609   8.632 -0.4840  0.1555 -0.0034
 1063DECAN   C610616   1.239   2.526   8.755 -0.3202  0.3280  0.1727
 1063DECAN   C710617   1.259   2.592   8.892  0.7860  0.4525 -0.0427
 1063DECAN   C810618   1.217   2.740   8.896  0.0094  0.2271  0.3308
 1063DECAN   C910619   1.304   2.840   8.974 -0.1353  0.2954  0.4050
 1063DECAN  C1010620   1.443   2.881   8.923 -0.0824 -0.4671 -0.0761
 1064DECAN   C110621   8.641   4.997  12.046  0.3094  0.9872  0.5095
 1064DECAN   C210622   8.594   5.144  12.053 -0.2202  0.8194  0.5864
 1064DECAN   C310623   8.695   5.251  12.009  0.6344  0.0517  0.6390
 1064DECAN   C410624   8.769   5.203  11.882  0.5098 -0.3502  0.7199
 1064DECAN   C510625   8.814   5.057  11.899  0.3527 -0.4888 -0.0403
 1064DECAN   C610626   8.866   5.004  11.763 -0.9457 -0.3442 -0.6039
 1064DECAN   C710627   8.872   4.850  11.762  0.2414 -0.3151  0.0046
 1064DECAN   C810628   8.923   4.779  11.635  0.3368 -0.1050 -0.0772
 1064DECAN   C910629   8.896   4.628  11.620  0.5057 -0.2170  0.6632
 1064DECAN  C1010630   8.956   4.566  11.492 -0.5821 -0.2280  0.1450
 1065DECAN   C110631   4.182   3.418   3.784  0.0112 -0.1910  1.1166
 1065DECAN   C210632   4.309   3.334   3.762  0.2221  0.3786  0.1019
 1065DECAN   C310633   4.355   3.252   3.884  0.5368 -0.0449 -0.2967
 1065DECAN   C410634   4.271   3.131   3.931  0.3512  0.2816  0.2164
 1065DECAN   C510635   4.132   3.184   3.973  0.3011  0.1804  0.1770
 1065DECAN   C610636   4.033   3.074   4.014 -0.0625  0.2932 -0.3956
 1065DECAN   C710637   3.898   3.137   4.052 -0.1077 -0.0239 -0.0252
 1065DECAN   C810638   3.894   3.235   4.171 -0.1616 -0.5218  0.3856
 1065DECAN   C910639   3.745   3.259   4.202 -0.1147  0.4469 -0.1204
 1065DECAN  C1010640   3.680   3.134   4.264 -0.0502  0.3322 -0.2844
 1066DECAN   C110641   2.010   4.059   8.279  0.5306  0.1115 -0.3572
 1066DECAN   C210642   1.967   3.912   8.297  0.1934  0.2227 -0.2420
 1066DECAN   C310643   1.831   3.901   8.367  0.1052  0.0845 -0.4337
 1066DECAN   C410644   1.832   3.964   8.508 -0.4128 -0.2631 -0.2702
 1066DECAN   C510645   1.720   3.909   8.597 -0.1317 -0.3157  0.0538
 1066DECAN   C610646   1.739   3.761   8.636  0.1968 -0.1641  0.4759
 1066DECAN   C710647   1.732   3.656   8.524 -0.4654  0.0007  0.3612
 1066DECAN   C810648   1.772   3.514   8.566 -0.2372 -0.2437 -0.6405
 1066DECAN   C910649   1.811   3.412   8.457  0.0631 -0.1488 -0.6231
 1066DECAN  C1010650   1.944   3.451   8.391  0.5292 -0.9381 -0.1623
 1067DECAN   C110651   4.163   7.143   8.363 -0.3332  0.0058  0.2779
 1067DECAN   C210652   4.030   7.113   8.293  0.0742 -0.0663 -0.4772
 1067DECAN   C310653   3.950   7.240   8.259 -0.1969 -0.2977 -0.7146
 1067DECAN   C410654   3.818   7.220   8.182 -0.6544  0.0256 -0.0283
 1067DECAN   C510655   3.747   7.354   8.159 -0.6011  0.1041  0.2567
 1067DECAN   C610656   3.623   7.328   8.070 -0.0776  0.2208 -0.5166
 1067DECAN   C710657   3.543   7.453   8.032  0.0485  0.3977 -0.1996
 1067DECAN   C810658   3.451   7.435   7.910  0.0177  0.2969 -0.1616
 1067DECAN   C910659   3.375   7.562   7.865 -0.2061  0.3438  0.3407
 1067DECAN  C1010660   3.484   7.647   7.798  0.1380 -0.2762  0.1003
 1068DECAN   C110661  10.447  11.016  10.612  0.1479  0.5186  0.6052
 1068DECAN   C210662  10.489  10.882  10.676  0.1246  0.1450 -0.1412
 1068DECAN   C310663  10.381  10.773  10.674 -0.1028  0.3782 -0.5122
 1068DECAN   C410664  10.240  10.816  10.720  0.2553  0.1166  0.8697
 1068DECAN   C510665  10.138  10.712  10.772  0.1299  0.0406  0.4727
 1068DECAN   C610666  10.117  10.585  10.688 -0.4340  0.4544 -0.0254
 1068DECAN   C710667   9.994  10.500  10.728  0.1017 -0.3652 -0.0936
 1068DECAN   C810668   9.979  10.373  10.643  0.2251 -0.4756  0.0485
 1068DECAN   C910669   9.863  10.281  10.687 -0.0520  0.0378  0.3880
 1068DECAN  C1010670   9.858  10.154  10.601  0.4183  0.2340  0.0680
 1069DECAN   C110671   1.804   0.222  12.568  0.7499 -0.7677 -0.5123
 1069DECAN   C210672   1.780   0.114  12.461 -0.2470 -0.8939 -0.1736
 1069DECAN   C310673   1.849   0.141  12.325 -0.4862 -0.2899 -0.1783
 1069DECAN   C410674   1.837   0.021  12.229  0.1106 -0.4492 -0.0574
 1069DECAN   C510675   1.694  11.238  12.181  0.2259 -0.4799 -0.3894
 1069DECAN   C610676   1.674  11.103  12.108 -0.1759 -0.8045  0.3127
 1069DECAN   C710677   1.550  11.101  12.018 -0.2386  0.6036  0.3437
 1069DECAN   C810678   1.572  11.204  11.906  0.2039 -0.1661 -0.2852
 1069DECAN   C910679   1.465  11.205  11.794 -0.0914  0.9220 -0.0047
 1069DECAN  C1010680   1.465   0.090  11.710 -0.5875  0.8138 -0.1676
 1070DECAN   C110681   3.376   0.781   7.204  0.3412  0.2005  0.7911
 1070DECAN   C210682   3.384   0.931   7.170  0.2316  0.0214 -0.0656
 1070DECAN   C310683   3.375   1.021   7.295  0.3010 -0.3863  0.2346
 1070DECAN   C410684   3.413   1.164   7.254  0.7088 -0.4303  0.4525
 1070DECAN   C510685   3.342   1.275   7.334  0.4495 -0.0313 -0.3255
 1070DECAN   C610686   3.385   1.415   7.284  0.0874  0.1910 -0.0196
 1070DECAN   C710687   3.328   1.529   7.370 -0.0018  0.0367  0.1269
 1070DECAN   C810688   3.374   1.528   7.517  0.4671  0.0693 -0.0206
 1070DECAN   C910689   3.302   1.636   7.600 -0.5559 -0.4590 -0.2132
 1070DECAN  C1010690   3.317   1.613   7.752  0.3545  0.5570 -0.1431
 1071DECAN   C110691   8.298   8.546   6.236  0.1074  0.2061  0.6533
 1071DECAN   C210692   8.250   8.412   6.176  0.4870  0.4133 -0.1194
 1071DECAN   C310693   8.370   8.321   6.148  0.0247 -0.2181 -0.0627
 1071DECAN   C410694   8.496   8.397   6.102 -0.1257  0.0439 -0.0373
 1071DECAN   C510695   8.624   8.318   6.068 -0.1480  0.1117 -0.2840
 1071DECAN   C610696   8.759   8.392   6.063  0.1720 -0.4368  0.0965
 1071DECAN   C710697   8.872   8.289   6.042  0.2918 -0.3564  0.3454
 1071DECAN   C810698   8.846   8.184   5.933 -0.3291  0.0241  0.1191
 1071DECAN   C910699   8.963   8.084   5.923 -0.0323  0.4399 -0.6220
 1071DECAN  C1010700   8.945   7.982   5.809 -0.1050 -0.0811 -0.1439
 1072DECAN   C110701   5.228  10.967   4.932  0.1256 -0.3533  0.4150
 1072DECAN   C210702   5.152  10.897   4.818  0.4748  0.3177 -0.2440
 1072DECAN   C310703   5.046  10.999   4.773  0.3369  0.4040  0.2696
 1072DECAN   C410704   4.956  10.967   4.652  0.3015  0.2134  0.3443
 1072DECAN   C510705   4.860  10.848   4.673 -0.0840  0.4731  0.0791
 1072DECAN   C610706   4.760  10.805   4.565  0.5452 -0.1850 -0.2554
 1072DECAN   C710707   4.822  10.788   4.425  0.1919 -0.0190 -0.4341
 1072DECAN   C810708   4.927  10.676   4.422  0.3858  0.1603 -0.3905
 1072DECAN   C910709   4.867  10.534   4.417 -0.1536  0.3692  0.0805
 1072DECAN  C1010710   4.970  10.420   4.417 -0.5628 -0.0019 -0.1728
 1073DECAN   C110711   2.366   8.325   5.724  0.0640 -0.5489 -0.0861
 1073DECAN   C210712   2.411   8.440   5.816 -0.3668 -0.1084 -0.4236
 1073DECAN   C310713   2.381   8.581   5.763  0.0868  0.0021 -0.3906
 1073DECAN   C410714   2.465   8.686   5.838  0.6020 -0.3481 -0.4735
 1073DECAN   C510715   2.430   8.828   5.790 -1.0142 -0.3074  0.7229
 1073DECAN   C610716   2.515   8.935   5.860 -0.7238 -0.0571  0.0035
 1073DECAN   C710717   2.523   9.076   5.798 -0.0621  0.0663  0.3514
 1073DECAN   C810718   2.635   9.160   5.861  0.2168 -0.2499  0.2815
 1073DECAN   C910719   2.633   9.308   5.816 -0.2377 -0.2554  0.2743
 1073DECAN  C1010720   2.633   9.319   5.662  0.0965 -0.1400  0.2809
 1074DECAN   C110721   8.366   8.338  14.220 -0.0125  0.1866  0.0774
 1074DECAN   C210722   8.309   8.479  14.247 -0.1891  0.0553  0.3973
 1074DECAN   C310723   8.415   8.590  14.229  0.3222 -0.4368  0.3182
 1074DECAN   C410724   8.359   8.730  14.199 -0.4648 -0.7649  0.2344
 1074DECAN   C510725   8.273   8.732  14.071 -0.5683  0.2212  0.3108
 1074DECAN   C610726   8.239   8.876  14.027 -0.9145  0.0663  0.0645
 1074DECAN   C710727   8.365   8.961  14.002 -0.3160 -0.6499  0.5811
 1074DECAN   C810728   8.438   9.019  14.124  0.6827 -0.5795 -0.0373
 1074DECAN   C910729   8.580   9.064  14.085  0.1272  0.9973 -0.3518
 1074DECAN  C1010730   8.653   9.122  14.207  0.2386 -0.2508  0.1965
 1075DECAN   C110731   8.953   0.843   9.754  0.0924 -0.7560 -0.2433
 1075DECAN   C210732   9.094   0.826   9.814  0.0510 -0.0189  0.0802
 1075DECAN   C310733   9.102   0.861   9.964 -0.2073  0.0279  0.0836
 1075DECAN   C410734   9.247   0.856  10.014 -0.1546 -0.0436 -0.0717
 1075DECAN   C510735   9.242   0.903  10.161  1.0309  0.1112 -0.0752
 1075DECAN   C610736   9.371   0.877  10.243  0.3552 -0.5405  0.8039
 1075DECAN   C710737   9.368   0.929  10.388 -0.7106 -0.1187  0.6403
 1075DECAN   C810738   9.508   0.925  10.451 -0.4024 -0.3401 -0.0453
 1075DECAN   C910739   9.502   0.979  10.595 -0.1068 -0.2176 -0.0769
 1075DECAN  C1010740   9.380   0.912  10.662 -0.1758  0.4158  0.4363
 1076DECAN   C110741   1.464   1.468   6.377  1.3570  0.0991  0.2008
 1076DECAN   C210742   1.474   1.319   6.412  0.2130 -0.0740 -0.1681
 1076DECAN   C310743   1.473   1.302   6.565  0.0420  0.4394 -0.1098
 1076DECAN   C410744   1.589   1.383   6.626  0.1226 -0.1857  0.5838
 1076DECAN   C510745   1.604   1.361   6.778  0.1358 -0.6485  0.5171
 1076DECAN   C610746   1.679   1.479   6.843 -0.1299 -0.2200  0.0567
 1076DECAN   C710747   1.711   1.463   6.993 -0.3167  0.0123  0.1207
 1076DECAN   C810748   1.811   1.568   7.046 -0.6314  0.2739  0.2003
 1076DECAN   C910749   1.739   1.704   7.055 -0.5898  0.2710  0.5910
 1076DECAN  C1010750   1.827   1.828   7.080  0.1307 -0.1157  0.0160
 1077DECAN   C110751  10.248   7.586   8.252  0.2327 -0.5469  0.2981
 1077DECAN   C210752  10.208   7.581   8.104  0.4510 -0.2718  0.2292
 1077DECAN   C310753  10.316   7.630   8.005  0.0362  0.2523  0.0327
 1077DECAN   C410754  10.335   7.782   8.015  0.0330  0.2771 -0.3250
 1077DECAN   C510755  10.439   7.846   7.921 -0.2171  1.4366  0.1747
 1077DECAN   C610756  10.587   7.858   7.962 -0.0931  0.0767  0.1724
 1077DECAN   C710757  10.668   7.732   7.928  0.5118  0.5590 -0.1878
 1077DECAN   C810758  10.775   7.703   8.035  0.1020  0.3523  0.1654
 1077DECAN   C910759  10.705   7.662   8.167  0.1235  0.0489  0.0820
 1077DECAN  C1010760  10.812   7.642   8.276  0.0459 -0.0068  0.1472
 1078DECAN   C110761   5.578   4.601   9.385  0.0318  0.0440  0.1115
 1078DECAN   C210762   5.486   4.478   9.393  0.1789 -0.1120 -0.5205
 1078DECAN   C310763   5.492   4.398   9.525 -0.3758  0.7000  0.0064
 1078DECAN   C410764   5.638   4.356   9.549 -0.7938 -0.3024  0.9157
 1078DECAN   C510765   5.732   4.470   9.593 -0.2137 -0.3773 -0.0942
 1078DECAN   C610766   5.873   4.416   9.622  0.2509  0.5848 -0.5153
 1078DECAN   C710767   5.971   4.503   9.703  0.3494  0.0272 -0.0344
 1078DECAN   C810768   6.002   4.645   9.653  0.7733  0.0810  0.3713
 1078DECAN   C910769   6.100   4.737   9.729  1.2257  0.1237 -0.2532
 1078DECAN  C1010770   6.072   4.765   9.878 -0.3712 -1.1333 -0.2926
 1079DECAN   C110771   8.612  10.222  12.805 -0.2882 -0.3300  0.1222
 1079DECAN   C210772   8.615  10.068  12.799  0.3257 -0.3140 -0.1394
 1079DECAN   C310773   8.751  10.009  12.759  0.2547 -0.4351 -0.2057
 1079DECAN   C410774   8.856  10.072  12.853 -0.2462 -0.0002  0.0698
 1079DECAN   C510775   8.996  10.012  12.829 -0.2686  0.0595 -0.2219
 1079DECAN   C610776   9.102  10.051  12.935 -0.3716  0.1630 -0.1564
 1079DECAN   C710777   9.125  10.203  12.949 -0.4379  0.1781 -0.2108
 1079DECAN   C810778   8.992  10.279  12.960 -0.2337  0.4993  0.0421
 1079DECAN   C910779   9.006  10.432  12.966 -0.3280  0.5131 -0.1078
 1079DECAN  C1010780   8.877  10.505  12.923 -0.3717  0.2584 -0.4123
 1080DECAN   C110781   9.656   6.154   5.495 -0.0849 -0.3360  0.3137
 1080DECAN   C210782   9.762   6.062   5.432 -0.1174 -0.0498 -0.1630
 1080DECAN   C310783   9.865   6.138   5.345 -0.0420 -0.3230 -0.3128
 1080DECAN   C410784   9.984   6.052   5.298  0.0296 -0.1049 -0.5290
 1080DECAN   C510785  10.091   6.011   5.401 -0.4883  0.4201  0.2367
 1080DECAN   C610786  10.201   5.931   5.327 -0.8675 -0.1381  0.2716
 1080DECAN   C710787  10.132   5.804   5.275 -0.5205 -0.1564 -0.1402
 1080DECAN   C810788  10.202   5.729   5.159 -0.1472  0.3829 -0.2657
 1080DECAN   C910789  10.205   5.806   5.026  0.4211 -0.0723 -0.5222
 1080DECAN  C1010790  10.293   5.932   5.034  0.0014  0.1690  0.4353
 1081DECAN   C110791   7.460   4.994   7.950 -0.1320 -0.5166  0.7417
 1081DECAN   C210792   7.448   4.840   7.952  0.1271 -0.5568 -0.1790
 1081DECAN   C310793   7.580   4.800   8.021  0.1603  0.4720  0.3895
 1081DECAN   C410794   7.591   4.646   8.028  0.1021  0.4121 -0.6792
 1081DECAN   C510795   7.711   4.597   8.111 -0.4969 -0.0190 -0.0636
 1081DECAN   C610796   7.766   4.457   8.078 -0.1255  0.1351 -0.0986
 1081DECAN   C710797   7.826   4.443   7.937  0.0171  0.2322 -0.0480
 1081DECAN   C810798   7.890   4.303   7.926 -0.1981  0.1484 -0.2449
 1081DECAN   C910799   7.956   4.262   7.794 -0.1537 -0.9339  0.1042
 1081DECAN  C1010800   8.013   4.119   7.792  0.2397 -0.7735 -0.4322
 1082DECAN   C110801   9.765   3.507  10.269 -0.2926 -0.1356 -0.2905
 1082DECAN   C210802   9.693   3.382  10.215  0.2237 -0.3868 -0.4044
 1082DECAN   C310803   9.606   3.407  10.091  0.0938 -0.0093 -0.2380
 1082DECAN   C410804   9.488   3.503  10.116  0.0768 -0.1053  0.0474
 1082DECAN   C510805   9.446   3.610  10.015  0.2196 -0.3674 -0.2909
 1082DECAN   C610806   9.328   3.699  10.060  0.2580 -0.1024 -0.7053
 1082DECAN   C710807   9.282   3.814   9.968 -0.2805  0.0832 -0.2129
 1082DECAN   C810808   9.163   3.882  10.037 -0.3914  0.0201 -0.3393
 1082DECAN   C910809   9.080   3.987   9.960 -0.3133 -0.0312 -0.4959
 1082DECAN  C1010810   9.147   4.125   9.947 -0.4875  0.0997 -0.0483
 1083DECAN   C110811   9.915   4.877   5.499  0.2571  0.0753 -0.3520
 1083DECAN   C210812  10.061   4.897   5.545  0.1732  0.1348 -0.1043
 1083DECAN   C310813  10.107   5.033   5.599  0.2999 -0.2427  0.7566
 1083DECAN   C410814  10.257   5.066   5.584  0.2479 -0.3892 -0.1828
 1083DECAN   C510815  10.310   5.180   5.673 -0.8269  0.2481 -0.3387
 1083DECAN   C610816  10.230   5.312   5.666 -0.6176  0.4186  0.3615
 1083DECAN   C710817  10.169   5.337   5.527  0.0744  0.6809  0.1008
 1083DECAN   C810818  10.261   5.351   5.405  0.2539 -0.1109  0.1389
 1083DECAN   C910819  10.180   5.348   5.274 -0.2203 -0.2265  0.4290
 1083DECAN  C1010820  10.144   5.202   5.240 -0.3121 -0.0021 -0.4675
 1084DECAN   C110821   7.314   2.773   4.708  0.0866  0.4780  0.0557
 1084DECAN   C210822   7.462   2.734   4.692 -0.0309 -0.1621  0.4462
 1084DECAN   C310823   7.558   2.814   4.782 -0.2694  0.3640  0.2350
 1084DECAN   C410824   7.519   2.789   4.929 -0.4341  0.5338  0.2210
 1084DECAN   C510825   7.564   2.906   5.019 -0.5691  0.2173  0.6981
 1084DECAN   C610826   7.553   2.876   5.170  0.0623 -0.3445  0.6377
 1084DECAN   C710827   7.407   2.877   5.221 -0.0920  0.0502  0.1943
 1084DECAN   C810828   7.397   2.829   5.367 -0.3498  0.2477  0.2414
 1084DECAN   C910829   7.445   2.928   5.474  0.4147 -0.4346  0.5390
 1084DECAN  C1010830   7.378   2.902   5.610  0.0690 -0.4503  0.3656
 1085DECAN   C110831  10.129   8.178   7.130 -0.2060  0.0328  0.1688
 1085DECAN   C210832  10.072   8.304   7.197 -0.4164  0.1179 -0.1694
 1085DECAN   C310833   9.925   8.279   7.237 -0.4718  0.5260 -0.1066
 1085DECAN   C410834   9.853   8.398   7.302  0.1418  0.3650  0.8813
 1085DECAN   C510835   9.713   8.373   7.359  0.0426 -0.2362  0.3824
 1085DECAN   C610836   9.655   8.501   7.422  0.5088  0.0708  0.1852
 1085DECAN   C710837   9.661   8.615   7.318  0.4216  0.0349  0.1411
 1085DECAN   C810838   9.639   8.763   7.356 -0.5788  0.0533 -0.4601
 1085DECAN   C910839   9.652   8.854   7.232  0.3916 -0.1463 -0.5182
 1085DECAN  C1010840   9.583   8.990   7.256 -0.1678 -0.5403  0.1556
 1086DECAN   C110841   6.728   4.578  11.786  0.1654  0.1543 -0.0879
 1086DECAN   C210842   6.673   4.716  11.826 -0.0008  0.0943 -0.1094
 1086DECAN   C310843   6.764   4.807  11.911 -0.1328  0.2926 -0.1801
 1086DECAN   C410844   6.700   4.943  11.945  0.0163  0.2876  0.1231
 1086DECAN   C510845   6.565   4.926  12.016  0.0488  0.0399  0.1274
 1086DECAN   C610846   6.468   4.836  11.938  0.1934 -0.2592  0.2917
 1086DECAN   C710847   6.329   4.831  12.004 -0.0118 -0.0438 -0.1183
 1086DECAN   C810848   6.218   4.782  11.909  0.0243 -0.1091 -0.1271
 1086DECAN   C910849   6.081   4.763  11.976 -0.2311 -0.4043 -0.7218
 1086DECAN  C1010850   6.077   4.660  12.091 -0.1406  0.4093  0.0273
 1087DECAN   C110851   3.400   8.649   9.280 -0.2491 -0.1795  0.2710
 1087DECAN   C210852   3.443   8.747   9.390 -0.4208 -0.4728  0.6008
 1087DECAN   C310853   3.486   8.666   9.514  0.5885 -0.5841  0.1882
 1087DECAN   C410854   3.499   8.767   9.630  0.4301  0.0010 -0.3010
 1087DECAN   C510855   3.357   8.812   9.670  0.3820 -0.8952  0.5606
 1087DECAN   C610856   3.360   8.837   9.822  0.7713 -0.3298  0.4648
 1087DECAN   C710857   3.469   8.932   9.875  0.1241  0.4651  0.3780
 1087DECAN   C810858   3.477   8.930  10.029  0.3279  0.1552  0.3640
 1087DECAN   C910859   3.600   9.001  10.090  0.2332  0.4333  0.2366
 1087DECAN  C1010860   3.734   8.955  10.031 -0.0118  0.7322 -0.5540
 1088DECAN   C110861   5.368  11.203   9.648  0.3094 -0.6092  0.4850
 1088DECAN   C210862   5.495  11.204   9.561  0.0962  0.2128  0.1778
 1088DECAN   C310863   5.488  11.086   9.463 -0.2489  0.1712  0.2526
 1088DECAN   C410864   5.470  10.944   9.519 -0.2137  0.0138 -0.1255
 1088DECAN   C510865   5.438  10.824   9.428  0.4082 -0.0423 -0.2701
 1088DECAN   C610866   5.442  10.687   9.499  0.4364  0.1270  0.0566
 1088DECAN   C710867   5.392  10.576   9.406 -0.1141  0.1520  0.3199
 1088DECAN   C810868   5.413  10.436   9.468  0.2339  0.0829  0.0470
 1088DECAN   C910869   5.377  10.321   9.372 -0.0572  0.2460 -0.0390
 1088DECAN  C1010870   5.453  10.312   9.239  0.1625 -0.5420  0.1386
 1089DECAN   C110871   7.246   7.939  11.711 -0.1429  0.0911  0.3676
 1089DECAN   C210872   7.382   7.961  11.780  0.0072 -0.5418  0.2771
 1089DECAN   C310873   7.497   7.980  11.679 -0.0502  0.1726  0.3390
 1089DECAN   C410874   7.629   8.021  11.745  0.3011 -0.3592 -0.0229
 1089DECAN   C510875   7.738   8.091  11.661  0.2314 -0.3006 -0.0639
 1089DECAN   C610876   7.824   8.181  11.751  0.1032 -0.3953  0.1580
 1089DECAN   C710877   7.741   8.285  11.828 -0.2028 -0.4574 -0.0855
 1089DECAN   C810878   7.628   8.346  11.744  0.3872  0.6528 -0.0982
 1089DECAN   C910879   7.562   8.461  11.823 -0.3820  0.0794  0.1036
 1089DECAN  C1010880   7.674   8.554  11.870 -0.2134  0.2025 -0.5310
 1090DECAN   C110881   6.205   6.086   8.758 -0.1481  0.8455  0.1129
 1090DECAN   C210882   6.063   6.085   8.816 -0.0371 -0.3329  0.3817
 1090DECAN   C310883   5.984   6.217   8.806  0.1590 -0.2382  0.0843
 1090DECAN   C410884   6.049   6.323   8.897 -0.6122 -0.0860  0.4603
 1090DECAN   C510885   5.954   6.443   8.878 -0.0020  0.2955 -0.1902
 1090DECAN   C610886   5.815   6.428   8.941  0.0815  0.3606  0.0130
 1090DECAN   C710887   5.745   6.299   8.893 -0.1197  0.4321  0.1117
 1090DECAN   C810888   5.606   6.272   8.954 -0.0401  0.2625  0.2179
 1090DECAN   C910889   5.510   6.391   8.940 -0.0017  0.2915  0.2017
 1090DECAN  C1010890   5.561   6.526   8.995 -0.2585  0.3924  0.1913
 1091DECAN   C110891   9.592   8.540  14.955  0.2973  0.0692  0.4357
 1091DECAN   C210892   9.623   8.651  14.854 -0.6055 -0.4433 -0.4233
 1091DECAN   C310893   9.729   8.593  14.758 -0.5696 -0.7579 -0.1955
 1091DECAN   C410894   9.682   8.489  14.655 -0.5801 -0.5709 -0.3812
 1091DECAN   C510895   9.623   8.551  14.527  0.0617  0.0076 -0.4024
 1091DECAN   C610896   9.567   8.443  14.433 -0.5505 -0.0798  0.0531
 1091DECAN   C710897   9.524   8.509  14.300  0.0707  0.2718  0.0221
 1091DECAN   C810898   9.632   8.529  14.192  0.2556  0.0567  0.1659
 1091DECAN   C910899   9.578   8.567  14.053  0.4718  0.2003  0.1226
 1091DECAN  C1010900   9.690   8.640  13.976  0.3387  0.2457 -0.0277
 1092DECAN   C110901   5.089   0.013  12.022  0.9903  0.7346 -0.0341
 1092DECAN   C210902   5.070   0.144  12.101  0.3058  0.0218  1.0192
 1092DECAN   C310903   5.176   0.247  12.055  0.1898 -0.1546  0.3482
 1092DECAN   C410904   5.145   0.393  12.092  0.2367  0.0281 -0.3206
 1092DECAN   C510905   5.005   0.447  12.060  0.0855  0.0161  0.3018
 1092DECAN   C610906   4.998   0.587  12.124  0.0852 -0.0642  0.4778
 1092DECAN   C710907   4.976   0.584  12.276  0.6677  0.1562  0.5674
 1092DECAN   C810908   4.923   0.715  12.337 -0.0421  0.0164  0.2643
 1092DECAN   C910909   4.842   0.689  12.465 -0.3573 -0.4894 -0.0360
 1092DECAN  C1010910   4.807   0.817  12.543  0.0564 -0.5251  0.2115
 1093DECAN   C110911   2.015  10.939   9.746  0.3186 -0.0232 -0.0349
 1093DECAN   C210912   1.911  11.051   9.726  0.0608 -0.3279 -0.4156
 1093DECAN   C310913   1.904  11.114   9.585  0.1322  0.3243 -0.1318
 1093DECAN   C410914   1.812  11.234   9.558 -0.3835 -0.0553 -0.0885
 1093DECAN   C510915   1.823   0.062   9.422  0.0326 -0.1478 -0.1057
 1093DECAN   C610916   1.740   0.191   9.417 -0.1194 -0.2173  0.5532
 1093DECAN   C710917   1.753   0.290   9.300 -0.2626 -0.4209  0.3661
 1093DECAN   C810918   1.711   0.237   9.161 -0.1078  0.0300  0.1463
 1093DECAN   C910919   1.741   0.324   9.038  0.2991 -0.4838 -0.1211
 1093DECAN  C1010920   1.722   0.246   8.906 -0.1376  0.2804 -0.5170
 1094DECAN   C110921   4.284   4.086   4.842 -0.2432  0.8341  0.6453
 1094DECAN   C210922   4.170   4.078   4.739  0.1218 -0.0011  0.2956
 1094DECAN   C310923   4.034   4.136   4.780  0.2878  0.5134  0.1256
 1094DECAN   C410924   3.951   4.073   4.894 -0.1809  0.0148 -0.4840
 1094DECAN   C510925   3.802   4.108   4.882 -0.2111  0.0545 -0.0179
 1094DECAN   C610926   3.719   4.047   4.996  0.2399  0.2140  0.3963
 1094DECAN   C710927   3.756   3.898   4.999  0.1400  0.1768 -0.2015
 1094DECAN   C810928   3.697   3.825   5.121 -0.4056  0.0043 -0.5648
 1094DECAN   C910929   3.745   3.678   5.113  0.3062  0.2067 -0.0594
 1094DECAN  C1010930   3.652   3.600   5.019 -0.5632  0.3019  0.7016
 1095DECAN   C110931   8.523  10.529   9.454  0.0897  0.3171 -0.3158
 1095DECAN   C210932   8.660  10.478   9.503 -0.2916 -0.4011  0.0103
 1095DECAN   C310933   8.764  10.591   9.503  0.0553 -0.7200 -0.2917
 1095DECAN   C410934   8.888  10.545   9.583  0.0733  0.1018  0.1585
 1095DECAN   C510935   9.014  10.633   9.574 -0.0524  0.2536 -0.1536
 1095DECAN   C610936   9.127  10.570   9.658  0.1942 -0.1467 -0.7764
 1095DECAN   C710937   9.154  10.422   9.629  0.6483 -0.1793 -0.2252
 1095DECAN   C810938   9.265  10.357   9.713  0.7724  0.4681  0.1101
 1095DECAN   C910939   9.285  10.205   9.700  0.2633  0.3710  0.4235
 1095DECAN  C1010940   9.401  10.151   9.785  0.1290 -0.3323  0.1667
 1096DECAN   C110941   8.883  10.995   8.043  0.7947 -0.3426 -0.7309
 1096DECAN   C210942   8.783  10.886   7.997  0.1299 -0.0641  0.0294
 1096DECAN   C310943   8.832  10.741   7.979 -0.1162 -0.1917  0.3836
 1096DECAN   C410944   8.729  10.633   7.941 -0.0839  0.0501 -0.4053
 1096DECAN   C510945   8.781  10.488   7.942 -0.2006  0.0064  0.3136
 1096DECAN   C610946   8.700  10.389   7.857 -0.5353  0.4069  0.1588
 1096DECAN   C710947   8.679  10.451   7.718  0.5707  0.0709 -0.1698
 1096DECAN   C810948   8.632  10.352   7.609  0.9405  0.3083 -0.5462
 1096DECAN   C910949   8.648  10.419   7.472 -0.0826  0.2435 -0.7016
 1096DECAN  C1010950   8.608  10.329   7.354  0.1059 -0.1060 -0.4972
 1097DECAN   C110951   2.950   9.597  10.105 -0.1059 -0.5520 -0.2358
 1097DECAN   C210952   2.800   9.621  10.130  0.0690  0.2968  0.0434
 1097DECAN   C310953   2.731   9.755  10.097 -0.1710  0.0724 -0.3804
 1097DECAN   C410954   2.588   9.756  10.154  0.0779  0.0179  0.2561
 1097DECAN   C510955   2.504   9.867  10.087  0.0529 -0.2831 -0.2099
 1097DECAN   C610956   2.361   9.880  10.141  0.0418  0.1754 -0.3451
 1097DECAN   C710957   2.272   9.976  10.061 -0.0802  0.2368 -0.1369
 1097DECAN   C810958   2.118   9.978  10.074 -0.1172  0.6086 -0.5931
 1097DECAN   C910959   2.051  10.076   9.976 -0.2049  0.5869 -0.5534
 1097DECAN  C1010960   1.898  10.081   9.989 -0.1727 -0.6240  0.4369
 1098DECAN   C110961   9.296   7.530   7.188  0.4501 -0.7090  0.1978
 1098DECAN   C210962   9.360   7.470   7.315  0.8069  0.0563  0.3835
 1098DECAN   C310963   9.361   7.583   7.420 -0.2755  0.0741  0.3897
 1098DECAN   C410964   9.424   7.712   7.364 -0.5955  0.4697  0.9222
 1098DECAN   C510965   9.438   7.826   7.466 -0.0328  0.3264  1.0087
 1098DECAN   C610966   9.473   7.956   7.390  0.2263  0.1173  0.7678
 1098DECAN   C710967   9.597   7.936   7.301 -0.3340 -0.0511  0.0174
 1098DECAN   C810968   9.720   7.993   7.374 -0.2116 -0.3222  0.0203
 1098DECAN   C910969   9.717   7.982   7.528 -0.2740  0.0408  0.0446
 1098DECAN  C1010970   9.839   8.047   7.596 -0.3524  0.3042 -0.0662
 1099DECAN   C110971  11.104   9.227  10.041 -0.2353 -0.2628  0.2934
 1099DECAN   C210972  11.023   9.331   9.961  0.0795 -0.2465 -0.0022
 1099DECAN   C310973  10.929   9.273   9.854 -0.1612  0.4994 -0.1985
 1099DECAN   C410974  10.830   9.163   9.897 -0.1461  0.4925 -0.1830
 1099DECAN   C510975  10.700   9.220   9.957 -0.2250  0.2847 -0.1544
 1099DECAN   C610976  10.631   9.115  10.046  0.1552  0.2759  0.1352
 1099DECAN   C710977  10.503   9.156  10.121 -0.5686  0.0882 -0.9686
 1099DECAN   C810978  10.455   9.056  10.228  0.0679  0.3680 -0.4126
 1099DECAN   C910979  10.341   9.107  10.319  0.0535  0.3066 -0.3946
 1099DECAN  C1010980  10.368   9.250  10.370 -0.2508 -0.1536  1.1184
 1100DECAN   C110981   7.402   1.719  14.114 -0.3822 -0.3249  0.4326
 1100DECAN   C210982   7.396   1.805  14.242 -0.1208  0.2023  0.0900
 1100DECAN   C310983   7.256   1.840  14.297 -0.1269  0.1196  0.1268
 1100DECAN   C410984   7.157   1.891  14.190  0.1713  0.1267 -0.1471
 1100DECAN   C510985   7.008   1.887  14.226  0.0376 -0.5224 -0.7566
 1100DECAN   C610986   6.905   1.935  14.121 -0.3409 -0.1673 -0.2320
 1100DECAN   C710987   6.937   2.077  14.072  0.1367 -0.0936  0.2715
 1100DECAN   C810988   7.074   2.099  14.005  0.1633 -0.0160  0.3518
 1100DECAN   C910989   7.096   2.238  13.943 -0.1501 -0.0907  0.0684
 1100DECAN  C1010990   7.235   2.254  13.880  0.1459 -0.4907  0.6175
 1101DECAN   C110991   4.692  10.254   7.102 -0.1290  0.2305  0.4794
 1101DECAN   C210992   4.573  10.345   7.067 -0.4454 -0.3893 -0.0921
 1101DECAN   C310993   4.523  10.347   6.922 -0.2860  0.1786 -0.1434
 1101DECAN   C410994   4.403  10.440   6.897  0.0934  0.7143  0.0307
 1101DECAN   C510995   4.332  10.383   6.773  0.1483 -0.1507  0.3920
 1101DECAN   C610996   4.206  10.455   6.722  0.5734  0.1255 -0.2903
 1101DECAN   C710997   4.157  10.393   6.590  0.2020 -0.4459  0.1103
 1101DECAN   C810998   4.059  10.490   6.522  0.2973 -0.4719 -0.0634
 1101DECAN   C910999   3.975  10.425   6.410  0.0453 -0.0440 -0.1297
 1101DECAN  C1011000   3.869  10.514   6.344 -0.0093 -0.3129 -0.4067
 1102DECAN   C111001   7.131   1.876  12.672 -0.3300 -0.3968  0.0046
 1102DECAN   C211002   7.213   1.811  12.559  0.1952 -0.3423  0.3520
 1102DECAN   C311003   7.365   1.795  12.582  0.2190 -0.4965  0.0942
 1102DECAN   C411004   7.451   1.771  12.457 -0.0512 -0.1190 -0.1664
 1102DECAN   C511005   7.599   1.734  12.483 -0.2309 -0.4703  0.3629
 1102DECAN   C611006   7.647   1.619  12.393  0.0838  0.0272 -0.1098
 1102DECAN   C711007   7.670   1.675  12.252 -0.3522  0.2312 -0.1018
 1102DECAN   C811008   7.719   1.563  12.158 -0.3690 -0.0779  0.2589
 1102DECAN   C911009   7.727   1.597  12.008 -0.0174 -0.0662  0.2780
 1102DECAN  C1011010   7.773   1.478  11.922 -0.5360 -0.1364  0.0971
 1103DECAN   C111011   3.337   2.234  12.949 -0.1980  0.0559  0.3348
 1103DECAN   C211012   3.222   2.230  12.847  0.3810  0.8690 -0.3702
 1103DECAN   C311013   3.120   2.346  12.841  0.0581  0.6012 -0.1234
 1103DECAN   C411014   2.975   2.310  12.803  0.1757  0.2322 -0.2372
 1103DECAN   C511015   2.951   2.325  12.652 -0.5030  0.2797 -0.1273
 1103DECAN   C611016   2.940   2.474  12.615  0.7601  0.4053 -0.0570
 1103DECAN   C711017   2.934   2.487  12.461  0.7583  0.0222 -0.0873
 1103DECAN   C811018   2.892   2.624  12.405  0.2409 -0.1891 -0.2298
 1103DECAN   C911019   2.925   2.646  12.256 -0.2118  0.0534 -0.2934
 1103DECAN  C1011020   3.073   2.624  12.221  0.0106  0.2470  0.4984
 1104DECAN   C111021   2.085   2.481  11.824  0.0854 -0.1844 -0.0853
 1104DECAN   C211022   1.940   2.437  11.852  0.1329 -0.1777  0.1804
 1104DECAN   C311023   1.927   2.290  11.897  0.0200 -0.1795  0.1413
 1104DECAN   C411024   1.818   2.273  12.004  0.1720  0.4148  0.3954
 1104DECAN   C511025   1.820   2.128  12.055  0.3706  0.3379  0.1722
 1104DECAN   C611026   1.736   2.105  12.183  0.3627  0.8901  0.2688
 1104DECAN   C711027   1.591   2.155  12.165  0.0687  0.0909  0.3799
 1104DECAN   C811028   1.499   2.078  12.068  0.2333 -0.3756  0.5940
 1104DECAN   C911029   1.358   2.138  12.067  0.2760 -0.2840 -0.2176
 1104DECAN  C1011030   1.367   2.290  12.043 -0.4151 -0.2491 -0.2739
 1105DECAN   C111031   8.249   8.255   5.411 -0.2013  0.2828 -0.5547
 1105DECAN   C211032   8.146   8.334   5.494 -0.0140 -0.0874  0.0382
 1105DECAN   C311033   8.091   8.288   5.630  0.4581  0.1521  0.3105
 1105DECAN   C411034   8.038   8.399   5.723 -0.1480 -0.3078  0.5193
 1105DECAN   C511035   8.145   8.507   5.749  0.2952 -0.6341  0.0722
 1105DECAN   C611036   8.118   8.634   5.831 -0.1859 -0.0623 -0.9477
 1105DECAN   C711037   8.239   8.715   5.883 -0.4198 -0.6936  0.6085
 1105DECAN   C811038   8.212   8.847   5.958  0.0381  0.0382 -0.4996
 1105DECAN   C911039   8.331   8.879   6.050 -0.1854 -0.5687  0.0058
 1105DECAN  C1011040   8.326   9.016   6.121 -0.3286 -0.6337  0.1218
 1106DECAN   C111041   8.475   3.826  11.170 -0.1411 -0.2449 -0.7667
 1106DECAN   C211042   8.454   3.717  11.277 -0.3106  0.3146 -0.2230
 1106DECAN   C311043   8.315   3.651  11.273 -0.0124 -0.3372  0.0753
 1106DECAN   C411044   8.285   3.537  11.373  0.4369 -0.4888  0.0385
 1106DECAN   C511045   8.141   3.482  11.372  0.1972  0.1353 -0.7331
 1106DECAN   C611046   8.124   3.369  11.476 -0.7942  0.9502  0.0084
 1106DECAN   C711047   7.978   3.321  11.478 -0.4092 -0.2224  0.6246
 1106DECAN   C811048   7.965   3.186  11.550 -0.5713 -0.6050 -0.1108
 1106DECAN   C911049   8.027   3.065  11.478 -0.4120 -0.2594 -0.5599
 1106DECAN  C1011050   8.049   2.938  11.563  0.2838  0.0712 -0.2427
 1107DECAN   C111051   3.820   1.678  14.808  0.4588 -0.0798 -0.3418
 1107DECAN   C211052   3.766   1.603  14.931 -0.3569  0.5243 -0.3286
 1107DECAN   C311053   3.650   1.509  14.892 -0.1348  0.0294  0.1942
 1107DECAN   C411054   3.677   1.403  14.784 -0.2630 -0.2734  0.4552
 1107DECAN   C511055   3.556   1.309  14.770  0.0808 -0.6416 -0.0768
 1107DECAN   C611056   3.502   1.247  14.900  0.0550 -0.5690 -0.0531
 1107DECAN   C711057   3.361   1.188  14.884  0.0292 -0.3931 -0.4803
 1107DECAN   C811058   3.260   1.301  14.857  0.4751  0.0083 -0.4717
 1107DECAN   C911059   3.117   1.248  14.839  0.3753  0.3716 -0.7735
 1107DECAN  C1011060   3.017   1.358  14.798 -0.3376  0.2736  0.6399
 1108DECAN   C111061   4.141   6.076   5.698  0.1506 -0.3730 -0.1749
 1108DECAN   C211062   4.160   6.151   5.566 -0.1241  0.0327  0.0149
 1108DECAN   C311063   4.209   6.058   5.453 -0.0709 -0.2459  0.2683
 1108DECAN   C411064   4.334   5.978   5.495 -0.2256 -0.5478  0.1569
 1108DECAN   C511065   4.378   5.866   5.400 -0.1028  0.0333 -0.4846
 1108DECAN   C611066   4.279   5.753   5.366 -0.1884  0.1369 -0.5822
 1108DECAN   C711067   4.278   5.635   5.466  0.4883  0.6113 -0.0062
 1108DECAN   C811068   4.135   5.582   5.489  0.6679  0.2040  0.1659
 1108DECAN   C911069   4.110   5.473   5.595 -0.1689 -0.0448 -0.2822
 1108DECAN  C1011070   3.960   5.439   5.609 -0.2476  0.2894 -0.2941
 1109DECAN   C111071  10.720   5.128  13.303  0.6889  0.0947 -0.3485
 1109DECAN   C211072  10.639   4.998  13.291  0.5995  0.1331 -0.1638
 1109DECAN   C311073  10.609   4.958  13.146 -0.5357 -0.2047  0.1555
 1109DECAN   C411074  10.525   4.829  13.140 -0.2036 -0.4402  0.5658
 1109DECAN   C511075  10.497   4.777  12.998 -0.1449  0.5630  0.1827
 1109DECAN   C611076  10.375   4.684  12.999 -0.1433  0.5469 -0.5159
 1109DECAN   C711077  10.405   4.544  13.057 -1.3541  0.4693 -0.0281
 1109DECAN   C811078  10.284   4.451  13.041 -1.0787  0.0457  0.3370
 1109DECAN   C911079  10.312   4.304  13.080 -0.5936 -0.1676 -0.7667
 1109DECAN  C1011080  10.429   4.229  13.014 -0.3767 -0.0857 -0.4770
 1110DECAN   C111081   3.959   1.204   9.812 -0.1997  0.2920  0.3463
 1110DECAN   C211082   4.039   1.335   9.818 -0.0978  0.2476 -0.0193
 1110DECAN   C311083   4.127   1.336   9.945 -0.2115 -0.0923  0.0627
 1110DECAN   C411084   4.163   1.478   9.990 -0.3069  0.0375 -0.2722
 1110DECAN   C511085   4.307   1.494  10.043 -0.4472 -0.1240  0.1526
 1110DECAN   C611086   4.339   1.631  10.104  1.1058 -0.3361 -0.1631
 1110DECAN   C711087   4.321   1.759  10.020 -0.1928 -0.3086  0.1426
 1110DECAN   C811088   4.402   1.878  10.075 -0.1873  0.0091 -0.5354
 1110DECAN   C911089   4.386   2.011  10.000 -0.0018  0.3519  0.0245
 1110DECAN  C1011090   4.466   2.126  10.064  0.1923  0.0531  0.3255
 1111DECAN   C111091   2.307   0.062   5.496  0.0822  0.8470 -0.2291
 1111DECAN   C211092   2.460   0.057   5.479  0.0811 -0.0334 -0.0454
 1111DECAN   C311093   2.553   0.167   5.535 -0.0529 -0.2871  0.6911
 1111DECAN   C411094   2.695   0.135   5.486 -0.2210  0.2482 -0.1686
 1111DECAN   C511095   2.789   0.256   5.508 -0.0872  0.1233 -0.0500
 1111DECAN   C611096   2.932   0.248   5.452 -0.0044 -0.6754  0.2634
 1111DECAN   C711097   3.035   0.349   5.507 -0.1530 -0.0517 -0.5874
 1111DECAN   C811098   2.968   0.487   5.505 -0.0241  0.0407  0.8337
 1111DECAN   C911099   2.877   0.506   5.628 -0.5256 -0.9341  0.6228
 1111DECAN  C1011100   2.967   0.527   5.751 -0.1797 -0.2587  0.2584
 1112DECAN   C111101   3.528  11.009   5.512  0.3938 -0.3225 -0.1364
 1112DECAN   C211102   3.513  10.958   5.368  0.1994 -0.1259 -0.1866
 1112DECAN   C311103   3.415  10.841   5.346 -0.0598  0.0794 -0.1223
 1112DECAN   C411104   3.271  10.883   5.384 -0.1106  0.0613 -0.2918
 1112DECAN   C511105   3.207  11.018   5.349 -0.6461 -0.2084 -0.3513
 1112DECAN   C611106   3.089  11.051   5.442 -0.3509 -0.2891  0.0527
 1112DECAN   C711107   3.109  11.132   5.572  0.4638 -0.0963 -0.1860
 1112DECAN   C811108   2.983  11.156   5.657  0.4002  0.1813 -0.3583
 1112DECAN   C911109   2.991  11.212   5.800 -0.5125 -0.3896 -0.0718
 1112DECAN  C1011110   2.976   0.121   5.802  0.0825 -0.3256 -0.3114
 1113DECAN   C111111   9.720   9.546  10.085  0.0291 -0.3410 -0.5033
 1113DECAN   C211112   9.867   9.543  10.040  0.4566 -0.2181  0.8245
 1113DECAN   C311113   9.908   9.399  10.004 -0.1862 -0.1817 -0.0879
 1113DECAN   C411114   9.935   9.312  10.128  0.4969  0.3072  0.1098
 1113DECAN   C511115   9.970   9.168  10.084  0.2578  0.1334  0.4901
 1113DECAN   C611116   9.955   9.077  10.207 -0.1006 -0.0124  0.3401
 1113DECAN   C711117   9.986   8.926  10.195 -0.3357 -0.0023 -0.4500
 1113DECAN   C811118  10.115   8.879  10.127 -0.0459  0.0706  0.0445
 1113DECAN   C911119  10.148   8.729  10.142 -0.4103  0.0100  0.2316
 1113DECAN  C1011120  10.057   8.625  10.074  0.0267 -0.4794  0.3941
 1114DECAN   C111121   5.029   7.536   4.170 -0.2885 -0.1665  0.2228
 1114DECAN   C211122   5.085   7.397   4.206 -0.3964 -0.3684 -0.3890
 1114DECAN   C311123   4.988   7.319   4.297 -0.1661 -0.3552 -0.1330
 1114DECAN   C411124   5.046   7.190   4.357  0.3511 -0.1229 -0.1238
 1114DECAN   C511125   4.934   7.115   4.432  0.1121  0.2908 -0.0649
 1114DECAN   C611126   4.978   6.980   4.491 -0.2722 -0.0781 -0.6122
 1114DECAN   C711127   4.862   6.892   4.543  0.0827 -0.0456  0.2443
 1114DECAN   C811128   4.807   6.927   4.683 -0.7407 -0.4994  0.0373
 1114DECAN   C911129   4.657   6.902   4.707 -0.8570  0.0534 -0.0956
 1114DECAN  C1011130   4.606   6.969   4.836 -0.3092  0.3220 -0.0151
 1115DECAN   C111131   5.331   8.853   4.559 -0.1790 -0.2944 -1.0915
 1115DECAN   C211132   5.352   8.789   4.697 -0.2529  0.3325 -0.7862
 1115DECAN   C311133   5.237   8.691   4.731 -0.0361  0.4350  0.2699
 1115DECAN   C411134   5.237   8.654   4.880 -0.2443 -0.5420  0.0294
 1115DECAN   C511135   5.203   8.771   4.974  0.0779 -0.3156 -0.1363
 1115DECAN   C611136   5.184   8.734   5.123  0.2597 -0.0237 -0.0386
 1115DECAN   C711137   5.061   8.647   5.155  0.5108 -0.3624  0.0115
 1115DECAN   C811138   5.039   8.617   5.305  0.0196  0.6356  0.1479
 1115DECAN   C911139   4.929   8.511   5.326 -0.0904  0.7926  0.3605
 1115DECAN  C1011140   4.907   8.451   5.466 -0.5600  0.1559  0.0215
 1116DECAN   C111141   1.686  11.226  14.464 -0.4896  0.0009 -0.3082
 1116DECAN   C211142   1.809   0.070  14.495 -0.1756 -0.6528  0.3355
 1116DECAN   C311143   1.885   0.024  14.621  0.3631 -0.6697  0.0088
 1116DECAN   C411144   2.000   0.117  14.662 -0.3278 -0.0201  0.5146
 1116DECAN   C511145   2.085   0.051  14.772  0.0137 -0.1703  0.1687
 1116DECAN   C611146   2.151  11.159  14.741  0.2319  0.0130 -0.1738
 1116DECAN   C711147   2.235  11.098  14.855  0.3947 -0.1072 -0.3585
 1116DECAN   C811148   2.364  11.174  14.890 -0.0593  0.5388 -0.0709
 1116DECAN   C911149   2.486  11.082  14.911 -0.4283  0.1399  0.3562
 1116DECAN  C1011150   2.516  11.006  14.780  0.1069 -0.5240  0.8612
 1117DECAN   C111151   8.900   4.284   4.397 -0.5523  0.1743  0.4495
 1117DECAN   C211152   8.983   4.178   4.472  0.0236 -0.0097 -0.4328
 1117DECAN   C311153   9.131   4.204   4.505 -0.1831  0.5278  0.0883
 1117DECAN   C411154   9.199   4.082   4.570  0.1632  0.3487 -0.6053
 1117DECAN   C511155   9.343   4.124   4.605 -0.0985  0.6264  0.1526
 1117DECAN   C611156   9.420   4.017   4.685 -0.2653  0.2755 -0.1512
 1117DECAN   C711157   9.340   3.944   4.795  0.6094 -0.3543  0.0790
 1117DECAN   C811158   9.417   3.842   4.880  0.4357 -0.3699  0.2175
 1117DECAN   C911159   9.331   3.762   4.981 -0.4848  0.3010 -0.0228
 1117DECAN  C1011160   9.419   3.660   5.056 -0.4792  0.2888 -0.0466
 1118DECAN   C111161   1.792   6.894   8.535 -0.5522 -0.3045  0.1113
 1118DECAN   C211162   1.910   6.903   8.633 -0.4196 -0.0247 -0.0742
 1118DECAN   C311163   2.026   6.805   8.611 -0.6770 -0.2171 -0.5803
 1118DECAN   C411164   1.975   6.659   8.608 -0.5682 -0.2666 -0.1691
 1118DECAN   C511165   2.090   6.569   8.561 -0.0884  0.4186 -0.3317
 1118DECAN   C611166   2.040   6.436   8.500  0.3574 -0.0654  0.3422
 1118DECAN   C711167   2.146   6.324   8.506  0.4599  0.0134  0.0674
 1118DECAN   C811168   2.187   6.277   8.647 -0.2350 -0.3971  0.1398
 1118DECAN   C911169   2.066   6.254   8.739 -0.4789 -0.2848 -0.1518
 1118DECAN  C1011170   2.099   6.199   8.879 -0.1169  0.1801 -0.0536
 1119DECAN   C111171   1.046   4.086  10.476  0.1725 -0.4572  0.3194
 1119DECAN   C211172   1.116   3.953  10.443  0.1092 -0.4321  0.0859
 1119DECAN   C311173   1.269   3.963  10.454  0.0806 -0.0251  0.1194
 1119DECAN   C411174   1.336   3.829  10.419  0.1882  0.1614 -0.4113
 1119DECAN   C511175   1.473   3.819  10.489  0.0227 -0.1975 -0.1363
 1119DECAN   C611176   1.589   3.893  10.421 -0.2463  0.1856 -0.1771
 1119DECAN   C711177   1.690   3.804  10.347  0.1960  0.1274  0.4932
 1119DECAN   C811178   1.814   3.872  10.287  0.0422 -0.6114 -0.6866
 1119DECAN   C911179   1.781   3.960  10.165  0.0130  0.6260  0.1909
 1119DECAN  C1011180   1.688   4.070  10.219 -0.4561  0.0151  0.6554
 1120DECAN   C111181  11.046   9.205  11.182 -0.0565 -0.1851  0.0375
 1120DECAN   C211182  10.995   9.226  11.326 -0.5170 -0.3525 -0.0982
 1120DECAN   C311183  10.927   9.113  11.404 -0.3101 -0.2243  0.2761
 1120DECAN   C411184  11.021   8.991  11.414  0.3528  0.2975  0.4095
 1120DECAN   C511185  10.954   8.869  11.478  0.1389  0.1281 -0.1387
 1120DECAN   C611186  11.040   8.741  11.476 -0.1559 -0.0835  0.4492
 1120DECAN   C711187  10.944   8.624  11.505 -0.1798 -0.3332 -0.5968
 1120DECAN   C811188  10.837   8.621  11.395 -0.7031 -0.3381 -0.0921
 1120DECAN   C911189  10.747   8.744  11.368 -0.1126  0.1875  0.3208
 1120DECAN  C1011190  10.639   8.721  11.261  0.4360  0.0468 -0.2082
 1121DECAN   C111191   6.906   8.777   6.893 -0.5248  0.4316 -0.2444
 1121DECAN   C211192   6.913   8.862   7.021 -0.0077  0.2532 -0.1535
 1121DECAN   C311193   6.824   8.987   7.018  0.1965  0.3946 -0.3542
 1121DECAN   C411194   6.825   9.075   7.144  0.0969  0.3786 -0.3416
 1121DECAN   C511195   6.967   9.129   7.170  0.1296 -0.1969  0.7422
 1121DECAN   C611196   7.066   9.014   7.196  0.1112 -0.3303  0.2332
 1121DECAN   C711197   7.216   9.049   7.198  0.1493 -0.4473 -0.4492
 1121DECAN   C811198   7.305   8.946   7.270 -0.2035 -0.2819  0.2252
 1121DECAN   C911199   7.343   8.822   7.187  0.4042  0.0544 -0.0058
 1121DECAN  C1011200   7.221   8.729   7.173  0.2801  0.1614  0.3575
 1122DECAN   C111201   3.482   5.660   7.514  0.3932  0.2485  0.0797
 1122DECAN   C211202   3.590   5.561   7.465  0.2733  0.1339  0.0457
 1122DECAN   C311203   3.730   5.616   7.432  0.0556  0.3654 -0.5084
 1122DECAN   C411204   3.831   5.501   7.413  0.2140  0.3223  0.5362
 1122DECAN   C511205   3.974   5.535   7.367  0.0758 -0.5059 -0.5366
 1122DECAN   C611206   4.086   5.429   7.364  0.4065 -0.1926  0.2837
 1122DECAN   C711207   4.215   5.483   7.300  0.2379 -0.1769 -0.0471
 1122DECAN   C811208   4.339   5.399   7.337 -0.1627 -0.4857  0.6314
 1122DECAN   C911209   4.311   5.255   7.291 -0.0571 -0.3922  0.2635
 1122DECAN  C1011210   4.299   5.235   7.139  0.0891  0.3337  0.1544
 1123DECAN   C111211   6.733   3.939   5.983  0.3054 -0.0534  0.4411
 1123DECAN   C211212   6.745   3.789   6.014  0.1693 -0.1523  0.0053
 1123DECAN   C311213   6.882   3.727   5.979 -0.0599 -0.5863 -0.1406
 1123DECAN   C411214   6.892   3.580   6.024 -0.5450 -0.5859 -0.0196
 1123DECAN   C511215   7.023   3.506   5.991  0.2557  0.6842  0.2369
 1123DECAN   C611216   7.025   3.362   6.045  0.3793  0.4876 -0.2868
 1123DECAN   C711217   7.002   3.350   6.197 -0.0873  0.1610 -0.3829
 1123DECAN   C811218   7.032   3.206   6.243 -0.0283  0.1867 -0.3418
 1123DECAN   C911219   6.958   3.088   6.176  0.3216 -0.1207 -0.1943
 1123DECAN  C1011220   6.996   2.957   6.246  0.1919  0.1260  0.3485
 1124DECAN   C111221   4.322   3.956  12.219 -0.2927 -0.0464  0.1900
 1124DECAN   C211222   4.388   3.921  12.353  0.2766  0.1980 -0.0256
 1124DECAN   C311223   4.482   4.032  12.403 -0.1537  0.4108  0.3191
 1124DECAN   C411224   4.547   3.997  12.539 -0.6244 -0.4738  0.3207
 1124DECAN   C511225   4.672   4.079  12.575 -0.3333 -0.5710 -0.4492
 1124DECAN   C611226   4.661   4.230  12.547  0.7696 -0.2809  0.5830
 1124DECAN   C711227   4.736   4.327  12.641 -0.3648  0.2119  1.0054
 1124DECAN   C811228   4.709   4.475  12.609  0.1493  0.2765  0.8732
 1124DECAN   C911229   4.773   4.526  12.478 -0.1663 -0.4818  0.4150
 1124DECAN  C1011230   4.927   4.528  12.483 -0.1596  0.3434  0.1399
 1125DECAN   C111231   7.310   8.265   8.709  0.3300  0.3884 -0.6677
 1125DECAN   C211232   7.378   8.201   8.587  0.2902  0.2687 -0.6266
 1125DECAN   C311233   7.330   8.060   8.547  0.2577  0.0255  0.2344
 1125DECAN   C411234   7.414   8.003   8.431 -0.6532 -0.1707 -0.3440
 1125DECAN   C511235   7.403   8.094   8.308 -0.2296  0.1162 -0.1738
 1125DECAN   C611236   7.492   8.051   8.190  0.0227  0.2098 -0.0184
 1125DECAN   C711237   7.528   8.167   8.096 -0.5270  0.3849 -0.0172
 1125DECAN   C811238   7.588   8.115   7.964  0.0371 -0.6015  0.6134
 1125DECAN   C911239   7.699   8.009   7.970  0.5856 -0.0854 -0.1993
 1125DECAN  C1011240   7.639   7.891   8.048 -0.5082  0.3347 -0.3916
 1126DECAN   C111241   2.181   5.818   7.604  0.9740 -0.3689  0.1584
 1126DECAN   C211242   2.180   5.698   7.508  0.0904 -0.2267 -0.0239
 1126DECAN   C311243   2.043   5.669   7.444 -0.0103  0.3392 -0.0623
 1126DECAN   C411244   1.983   5.783   7.359 -0.3059  0.2510  0.0280
 1126DECAN   C511245   1.985   5.913   7.442 -0.0016 -0.0119  0.4371
 1126DECAN   C611246   1.910   6.037   7.390 -0.3966 -0.5613 -0.3342
 1126DECAN   C711247   1.996   6.122   7.294 -0.3338 -0.0192  0.2006
 1126DECAN   C811248   2.131   6.164   7.354  0.0740 -0.3464 -0.4846
 1126DECAN   C911249   2.217   6.258   7.267 -0.2871  0.0921 -0.3705
 1126DECAN  C1011250   2.217   6.196   7.126 -0.3224  0.2246 -0.4281
 1127DECAN   C111251   9.050  10.085   4.592 -0.2298 -0.5029  0.3236
 1127DECAN   C211252   8.985   9.993   4.487 -0.1277  0.4066 -0.5539
 1127DECAN   C311253   8.866  10.045   4.405 -0.5277  0.3298 -0.0290
 1127DECAN   C411254   8.807   9.952   4.297  0.1355 -0.3936  0.2296
 1127DECAN   C511255   8.667   9.992   4.249  0.3747 -0.2569 -0.3649
 1127DECAN   C611256   8.623   9.904   4.131  0.4570 -0.2528 -0.3985
 1127DECAN   C711257   8.493   9.952   4.065  0.4380 -0.0481 -0.2117
 1127DECAN   C811258   8.436   9.847   3.968  0.2046 -0.3515  0.2502
 1127DECAN   C911259   8.293   9.874   3.919  0.3816  0.4861  0.1710
 1127DECAN  C1011260   8.284  10.005   3.839 -0.0151  0.2364 -0.2001
 1128DECAN   C111261   4.293   4.469   6.062 -0.1327 -0.5506 -0.3586
 1128DECAN   C211262   4.444   4.494   6.079 -0.2577 -0.0202  0.0033
 1128DECAN   C311263   4.475   4.579   6.203  0.3281 -0.2429  0.0125
 1128DECAN   C411264   4.608   4.654   6.179 -0.0276  0.2634 -0.3970
 1128DECAN   C511265   4.685   4.669   6.312  0.7442 -0.3352 -0.7679
 1128DECAN   C611266   4.811   4.755   6.291  0.3108  0.6099  0.4293
 1128DECAN   C711267   4.791   4.893   6.227 -0.4718  0.2395 -0.1423
 1128DECAN   C811268   4.924   4.970   6.212 -0.1040 -0.4911 -0.6546
 1128DECAN   C911269   4.914   5.104   6.138  0.4637 -0.2006 -0.2114
 1128DECAN  C1011270   4.838   5.098   6.005 -0.1773  0.0084  0.1385
 1129DECAN   C111271   8.185   8.642  12.604  0.0365  0.6248  0.3780
 1129DECAN   C211272   8.168   8.784  12.547 -0.3667  0.2779 -0.3890
 1129DECAN   C311273   8.292   8.870  12.578 -0.4523  0.1817  0.2257
 1129DECAN   C411274   8.285   9.019  12.544  0.3304  0.2996  0.5517
 1129DECAN   C511275   8.420   9.085  12.578  0.6572  0.3668 -0.7844
 1129DECAN   C611276   8.438   9.236  12.552 -0.0712  0.7071  0.5941
 1129DECAN   C711277   8.581   9.288  12.534  0.2326 -0.3405 -0.1118
 1129DECAN   C811278   8.599   9.438  12.505  0.6112 -0.4098 -0.2435
 1129DECAN   C911279   8.576   9.536  12.622  0.2252 -0.2675 -0.4365
 1129DECAN  C1011280   8.577   9.684  12.581 -0.5333  0.1039  0.8462
 1130DECAN   C111281   6.769  11.002   9.458 -0.5841  0.0597  0.2288
 1130DECAN   C211282   6.819  10.934   9.586  0.2154 -0.1863 -0.2072
 1130DECAN   C311283   6.740  10.812   9.636  0.4784 -0.0973  0.4405
 1130DECAN   C411284   6.765  10.672   9.576 -0.3450 -0.2760  0.5040
 1130DECAN   C511285   6.913  10.630   9.592 -0.1853  0.2890  0.5430
 1130DECAN   C611286   6.963  10.488   9.563 -0.8921  0.0999  0.2392
 1130DECAN   C711287   7.116  10.485   9.582 -0.9095 -0.1128  0.3471
 1130DECAN   C811288   7.178  10.498   9.722  0.3828 -0.2881 -0.1934
 1130DECAN   C911289   7.328  10.518   9.751  0.4007 -0.6570 -0.0283
 1130DECAN  C1011290   7.381  10.503   9.894 -0.3750  0.8030  0.4366
 1131DECAN   C111291   4.802   7.224   8.930 -0.0665  0.0926  0.6639
 1131DECAN   C211292   4.901   7.119   8.876  0.0265  0.5307 -0.0227
 1131DECAN   C311293   4.993   7.039   8.969  0.0693  0.0982 -0.4278
 1131DECAN   C411294   5.100   7.118   9.048 -0.0663 -0.3213  0.1759
 1131DECAN   C511295   5.049   7.239   9.129 -0.4285 -0.2933 -0.0934
 1131DECAN   C611296   5.143   7.270   9.247 -0.3824  0.0525 -0.2215
 1131DECAN   C711297   5.283   7.320   9.207 -0.1620 -0.7495 -0.4818
 1131DECAN   C811298   5.366   7.346   9.335 -0.1539  0.0443 -0.6433
 1131DECAN   C911299   5.490   7.432   9.302  0.1436 -0.2941 -0.4145
 1131DECAN  C1011300   5.565   7.504   9.415  0.1669 -0.1000 -0.5521
 1132DECAN   C111301   6.538   2.589  13.063  0.7668 -0.5214  0.0752
 1132DECAN   C211302   6.423   2.496  13.019  0.9294 -0.3284 -0.7766
 1132DECAN   C311303   6.280   2.551  13.006  0.7066 -0.7816 -0.2733
 1132DECAN   C411304   6.175   2.443  12.972 -0.1530 -0.0208 -0.0655
 1132DECAN   C511305   6.188   2.377  12.834  0.2263 -0.5812  0.2371
 1132DECAN   C611306   6.081   2.267  12.821 -0.0259 -0.3217  0.1192
 1132DECAN   C711307   6.026   2.241  12.679 -0.2592  0.0102  0.1477
 1132DECAN   C811308   5.951   2.107  12.675  0.0828 -0.1739 -0.1724
 1132DECAN   C911309   5.922   2.066  12.530 -0.2198 -0.0255 -0.1547
 1132DECAN  C1011310   6.050   2.044  12.449 -0.1584  0.0792 -0.0861
 1133DECAN   C111311   4.492   7.507   6.368  0.2738 -0.4778  0.4247
 1133DECAN   C211312   4.522   7.599   6.488 -0.0703 -0.0370  0.1763
 1133DECAN   C311313   4.673   7.592   6.517 -0.0626 -0.3649  0.0647
 1133DECAN   C411314   4.714   7.699   6.621  0.0884 -0.0880 -0.2811
 1133DECAN   C511315   4.858   7.701   6.674 -0.2547 -0.5049  0.6794
 1133DECAN   C611316   4.887   7.803   6.787  0.3135  0.0580  0.0375
 1133DECAN   C711317   4.982   7.744   6.893  0.1200 -0.3508 -0.0140
 1133DECAN   C811318   4.993   7.819   7.027 -0.1540  0.0028 -0.1878
 1133DECAN   C911319   5.107   7.921   7.016 -0.1299  0.0103  0.1374
 1133DECAN  C1011320   5.055   8.044   7.092 -1.1863 -0.2107 -0.2125
 1134DECAN   C111321   2.931  11.007   9.635 -0.0523  0.0266  0.2027
 1134DECAN   C211322   3.014  11.137   9.634  0.2911 -0.1779  0.9362
 1134DECAN   C311323   3.163  11.129   9.597  0.0545  0.0009 -0.0913
 1134DECAN   C411324   3.218   0.009   9.523 -0.3398  0.1547 -0.1313
 1134DECAN   C511325   3.188   0.141   9.596  0.1127  0.1874 -0.0025
 1134DECAN   C611326   3.210   0.266   9.509 -0.1336  0.4204  0.2678
 1134DECAN   C711327   3.166   0.394   9.582 -0.2373  0.2719  0.4687
 1134DECAN   C811328   3.203   0.527   9.515 -0.3217  0.1487  0.1756
 1134DECAN   C911329   3.187   0.649   9.607 -0.1235 -0.0519  0.4745
 1134DECAN  C1011330   3.218   0.785   9.543  0.3157  0.0702  0.9386
 1135DECAN   C111331   1.704   1.954   7.396  0.2755  0.2477  0.4650
 1135DECAN   C211332   1.776   1.987   7.528 -0.0534  0.2615  0.6438
 1135DECAN   C311333   1.881   2.097   7.504 -0.0477  0.0646 -0.2684
 1135DECAN   C411334   1.971   2.111   7.628 -0.0779 -0.3596 -0.1994
 1135DECAN   C511335   1.907   2.163   7.758  0.2780 -0.0437 -0.1483
 1135DECAN   C611336   2.004   2.141   7.875 -0.1963  0.2894  0.3088
 1135DECAN   C711337   1.981   2.215   8.009 -0.0903  0.1108  0.4270
 1135DECAN   C811338   1.866   2.163   8.097 -0.1247 -0.0282  0.3005
 1135DECAN   C911339   1.745   2.206   8.011 -0.2015 -0.8191  0.0093
 1135DECAN  C1011340   1.612   2.171   8.081 -0.3085 -0.3150  0.0645
 1136DECAN   C111341   8.186   0.548   8.082 -0.6449  0.1128  0.5637
 1136DECAN   C211342   8.219   0.652   8.190  0.2040  0.0894  0.3371
 1136DECAN   C311343   8.351   0.620   8.262  0.1029  0.0226  0.4938
 1136DECAN   C411344   8.402   0.727   8.360  0.2487  0.1606  0.2693
 1136DECAN   C511345   8.527   0.678   8.436  0.2800 -0.1535  0.0164
 1136DECAN   C611346   8.578   0.789   8.530 -0.3719 -0.5127  0.8054
 1136DECAN   C711347   8.719   0.760   8.585  0.0094 -0.0703  0.0704
 1136DECAN   C811348   8.772   0.877   8.670  0.0015 -0.0573  0.0584
 1136DECAN   C911349   8.912   0.869   8.736 -0.0108 -0.0744  0.0832
 1136DECAN  C1011350   8.924   0.737   8.814  0.0531  0.0707  0.3175
 1137DECAN   C111351   1.105   8.573  11.996  0.2609 -0.2347  0.3013
 1137DECAN   C211352   1.254   8.535  11.987  0.2873  0.0099 -0.3351
 1137DECAN   C311353   1.277   8.408  12.072 -0.3249  0.3741  0.3918
 1137DECAN   C411354   1.236   8.275  12.006  0.2506  0.0063  0.7780
 1137DECAN   C511355   1.246   8.164  12.112 -0.9611  0.1610  1.0605
 1137DECAN   C611356   1.362   8.187  12.210 -0.3725  0.6182  0.2615
 1137DECAN   C711357   1.481   8.223  12.119 -0.5034 -0.0441 -0.1792
 1137DECAN   C811358   1.607   8.265  12.196 -0.7466 -0.0534  0.2271
 1137DECAN   C911359   1.585   8.402  12.264 -0.3172  0.3815 -0.4943
 1137DECAN  C1011360   1.605   8.528  12.178  0.0817  0.2928 -0.5365
 1138DECAN   C111361   4.289   3.875   5.506  0.1096 -0.0984 -0.3274
 1138DECAN   C211362   4.141   3.844   5.534  0.1419 -0.0683 -0.1154
 1138DECAN   C311363   4.114   3.692   5.526 -0.0491 -0.0460  0.1101
 1138DECAN   C411364   3.970   3.642   5.545 -0.0935  0.2597  0.6006
 1138DECAN   C511365   3.934   3.665   5.693 -0.1466  0.3159  0.5797
 1138DECAN   C611366   4.012   3.580   5.796  0.2154 -0.0114  0.0375
 1138DECAN   C711367   3.994   3.633   5.939  0.3942  0.5063 -0.1272
 1138DECAN   C811368   4.093   3.555   6.028 -0.3279 -0.2860 -0.0084
 1138DECAN   C911369   4.215   3.625   6.091 -0.6489  0.5677 -0.3205
 1138DECAN  C1011370   4.183   3.713   6.213 -0.7297 -0.0255  0.0926
 1139DECAN   C111371   9.947   4.755   9.157 -0.4721 -0.1812  0.2852
 1139DECAN   C211372   9.822   4.753   9.066  0.0635  0.2889 -0.4691
 1139DECAN   C311373   9.864   4.736   8.919 -0.2282  0.3005 -0.5540
 1139DECAN   C411374   9.744   4.703   8.829 -0.1979 -0.7790 -0.2135
 1139DECAN   C511375   9.771   4.716   8.678 -0.8387 -0.0369 -0.2673
 1139DECAN   C611376   9.698   4.621   8.580 -0.2323 -0.1413 -0.6195
 1139DECAN   C711377   9.737   4.630   8.431  0.6289 -0.2704 -0.4071
 1139DECAN   C811378   9.662   4.518   8.357  0.0386 -0.2203  0.1007
 1139DECAN   C911379   9.534   4.495   8.438 -0.1284 -0.1115 -0.1307
 1139DECAN  C1011380   9.426   4.401   8.380 -0.4483  0.2639 -0.1502
 1140DECAN   C111381   8.844   5.005  10.946 -0.4956 -0.0798  0.0133
 1140DECAN   C211382   8.759   5.109  10.872 -0.5655  0.0213  0.2345
 1140DECAN   C311383   8.757   5.252  10.929 -0.0560 -0.1218  0.6087
 1140DECAN   C411384   8.892   5.327  10.931 -0.1368  0.1156 -1.2048
 1140DECAN   C511385   8.892   5.476  10.970 -0.2800 -0.0910 -0.4028
 1140DECAN   C611386   8.826   5.568  10.866 -0.2823  0.2809 -0.0753
 1140DECAN   C711387   8.682   5.537  10.823  0.0375 -0.3424 -0.7252
 1140DECAN   C811388   8.617   5.644  10.734 -0.4046  0.0124  0.0090
 1140DECAN   C911389   8.612   5.787  10.790 -0.5681  0.0933 -0.2079
 1140DECAN  C1011390   8.560   5.886  10.685 -0.6178  0.0677 -0.2075
 1141DECAN   C111391   8.948   4.178   5.658 -0.4076  0.1344 -0.1297
 1141DECAN   C211392   8.845   4.088   5.730  0.0956 -0.0726  0.3356
 1141DECAN   C311393   8.892   4.018   5.859  0.3729  0.3474  0.4652
 1141DECAN   C411394   8.792   4.019   5.976  0.0702  0.5145  0.2079
 1141DECAN   C511395   8.670   3.925   5.965  0.3317  0.1866  0.0970
 1141DECAN   C611396   8.711   3.779   5.988 -0.1157  0.0651  0.1318
 1141DECAN   C711397   8.600   3.677   5.958  0.3595 -0.4008 -0.0704
 1141DECAN   C811398   8.633   3.526   5.961  0.3658 -0.3918  0.5139
 1141DECAN   C911399   8.731   3.486   5.849 -0.7013 -0.2383 -0.4910
 1141DECAN  C1011400   8.769   3.338   5.866  0.6052  0.1486  0.0718
 1142DECAN   C111401   9.466   0.277   7.497 -0.3366 -0.6138 -0.1467
 1142DECAN   C211402   9.379   0.359   7.595  0.5844  0.4798 -0.2227
 1142DECAN   C311403   9.245   0.405   7.534  0.2593  0.2324  0.3018
 1142DECAN   C411404   9.142   0.469   7.628 -0.4310 -0.3832 -0.0243
 1142DECAN   C511405   9.112   0.378   7.749 -0.0218 -0.3017  0.1385
 1142DECAN   C611406   9.006   0.443   7.839 -0.1389 -0.3674  0.0490
 1142DECAN   C711407   8.879   0.485   7.763  0.2102  0.3566 -0.1424
 1142DECAN   C811408   8.766   0.549   7.846  0.1308  0.2328 -0.1534
 1142DECAN   C911409   8.665   0.439   7.884  0.1193  0.1540 -0.4149
 1142DECAN  C1011410   8.586   0.470   8.012  0.2362 -0.1526 -0.2668
 1143DECAN   C111411   5.640   8.830   5.227  0.4017  0.1680  0.7520
 1143DECAN   C211412   5.513   8.844   5.313 -0.1193  0.6757 -0.0842
 1143DECAN   C311413   5.491   8.721   5.403 -0.6783  0.4483 -0.5283
 1143DECAN   C411414   5.435   8.591   5.344 -0.0380 -0.0977  0.0544
 1143DECAN   C511415   5.397   8.502   5.463  0.2985 -0.3016  0.0124
 1143DECAN   C611416   5.336   8.365   5.429  0.0483 -0.0715 -0.4725
 1143DECAN   C711417   5.281   8.287   5.550  0.5147 -0.0040 -0.2155
 1143DECAN   C811418   5.234   8.144   5.518  0.4412 -0.0704  0.1856
 1143DECAN   C911419   5.186   8.063   5.640 -0.3556 -0.6796 -0.5175
 1143DECAN  C1011420   5.277   8.011   5.752 -0.1180  0.6204 -0.0852
 1144DECAN   C111421   8.510  11.062   5.605  0.4550  0.5044  0.0506
 1144DECAN   C211422   8.485  11.213   5.625 -0.5827  0.3702 -0.1727
 1144DECAN   C311423   8.598   0.043   5.699 -0.1667 -0.2751 -0.1473
 1144DECAN   C411424   8.557   0.188   5.729 -0.1004 -0.3437  0.2837
 1144DECAN   C511425   8.668   0.254   5.814  0.1470  0.0139 -0.3094
 1144DECAN   C611426   8.666   0.407   5.826 -0.3728 -0.0428  0.3956
 1144DECAN   C711427   8.788   0.465   5.900 -0.4480  0.2551  0.2885
 1144DECAN   C811428   8.787   0.616   5.928 -0.2817  0.5178 -1.0722
 1144DECAN   C911429   8.675   0.667   6.020 -0.0482 -0.2980 -0.3226
 1144DECAN  C1011430   8.680   0.813   6.069  0.2843 -0.4059 -0.0334
 1145DECAN   C111431   3.579   8.365   6.884  0.1086  0.1388  0.1443
 1145DECAN   C211432   3.446   8.421   6.829 -0.4495 -0.6065  0.7050
 1145DECAN   C311433   3.351   8.481   6.935 -0.0639  0.5687  0.4086
 1145DECAN   C411434   3.226   8.554   6.882 -0.1355  0.1168 -0.0585
 1145DECAN   C511435   3.257   8.689   6.815  0.3484 -0.2042 -0.4929
 1145DECAN   C611436   3.127   8.764   6.780  0.3240 -0.0983 -0.1757
 1145DECAN   C711437   3.138   8.913   6.743  0.4186 -0.0286  0.1291
 1145DECAN   C811438   3.206   8.931   6.606 -0.2858  0.1855 -0.2000
 1145DECAN   C911439   3.111   8.897   6.490 -0.3297  0.0032 -0.1110
 1145DECAN  C1011440   3.183   8.893   6.354  0.4914 -0.2862  0.3302
 1146DECAN   C111441   3.121   5.391  14.403  0.5602 -0.4455 -0.1784
 1146DECAN   C211442   3.195   5.346  14.275  0.4092 -0.3558 -0.2984
 1146DECAN   C311443   3.281   5.221  14.303  0.6367  0.0201  0.7313
 1146DECAN   C411444   3.402   5.202  14.209  0.0957 -0.2210  0.0764
 1146DECAN   C511445   3.509   5.108  14.266  0.2716  0.0034  0.1185
 1146DECAN   C611446   3.451   4.966  14.278 -0.4991  0.3224  0.2024
 1146DECAN   C711447   3.555   4.852  14.275 -0.3233  0.4828  0.2377
 1146DECAN   C811448   3.492   4.715  14.305 -0.0904  0.3406  0.0789
 1146DECAN   C911449   3.593   4.608  14.352  0.3167  0.6416 -0.0976
 1146DECAN  C1011450   3.522   4.496  14.432  0.4292  0.5771 -0.0897
 1147DECAN   C111451   6.418   1.029  13.525 -0.9500 -0.0992  0.3775
 1147DECAN   C211452   6.352   1.154  13.465 -0.4159 -0.1637 -0.3709
 1147DECAN   C311453   6.450   1.247  13.391  0.1307  0.1180  0.6866
 1147DECAN   C411454   6.394   1.381  13.342  0.4582  0.0400  0.0953
 1147DECAN   C511455   6.406   1.498  13.442 -0.1180 -0.1197  0.3567
 1147DECAN   C611456   6.351   1.629  13.384 -0.0861 -0.0296  0.5315
 1147DECAN   C711457   6.410   1.697  13.259  0.5705 -0.1677  0.7628
 1147DECAN   C811458   6.560   1.726  13.282  0.6530 -0.0954  0.1545
 1147DECAN   C911459   6.639   1.782  13.162 -0.3767  0.0301 -0.4815
 1147DECAN  C1011460   6.786   1.813  13.193 -0.5885  0.3504  0.2124
 1148DECAN   C111461   8.821   8.902  12.296  0.3254 -0.2810 -0.0763
 1148DECAN   C211462   8.812   8.826  12.430 -0.2540 -0.0351  0.0297
 1148DECAN   C311463   8.764   8.922  12.540 -0.5305  0.0298 -0.1454
 1148DECAN   C411464   8.796   8.876  12.684  0.1433 -0.0427 -0.3175
 1148DECAN   C511465   8.741   8.978  12.785  0.4589 -0.0316 -0.1561
 1148DECAN   C611466   8.763   8.957  12.935  0.2152 -0.4280 -0.1771
 1148DECAN   C711467   8.693   9.049  13.038 -0.1386 -0.3226 -0.5099
 1148DECAN   C811468   8.729   9.194  13.003  0.2033 -0.2507  0.1244
 1148DECAN   C911469   8.691   9.303  13.105 -0.8737 -0.4989 -0.0024
 1148DECAN  C1011470   8.730   9.444  13.058  0.4832 -0.8614 -0.0154
 1149DECAN   C111471   8.001   0.516  12.196  0.4133  0.8219 -0.0708
 1149DECAN   C211472   8.071   0.545  12.062  0.7443  0.0217 -0.0759
 1149DECAN   C311473   7.996   0.654  11.983 -0.3895 -0.8242 -0.1993
 1149DECAN   C411474   8.012   0.657  11.830 -0.1197  0.5349 -0.1610
 1149DECAN   C511475   7.960   0.523  11.773 -0.5400  0.4886  0.3236
 1149DECAN   C611476   7.993   0.498  11.625 -0.4024 -0.0955  0.4542
 1149DECAN   C711477   7.932   0.598  11.526 -0.0989 -0.0071  0.3540
 1149DECAN   C811478   7.923   0.542  11.382  1.3331  0.2996  0.1316
 1149DECAN   C911479   7.890   0.653  11.281 -0.1197 -0.1552  0.0834
 1149DECAN  C1011480   7.760   0.733  11.302  0.2663  0.5842 -0.2836
 1150DECAN   C111481   2.745   5.460   7.863  0.1425  0.1541  0.2054
 1150DECAN   C211482   2.666   5.381   7.757  0.7884 -0.2214  0.0009
 1150DECAN   C311483   2.640   5.468   7.632  0.2943 -0.5001 -0.0944
 1150DECAN   C411484   2.558   5.399   7.521 -0.8308  0.4596  0.1290
 1150DECAN   C511485   2.527   5.486   7.398 -0.3434  0.3329 -0.0851
 1150DECAN   C611486   2.457   5.407   7.285 -0.2489 -0.2366  0.2527
 1150DECAN   C711487   2.378   5.503   7.195  0.1943 -0.2752 -0.1831
 1150DECAN   C811488   2.306   5.440   7.074  0.6808 -0.0278 -0.6041
 1150DECAN   C911489   2.210   5.521   6.985  0.0102 -0.1697 -0.0193
 1150DECAN  C1011490   2.152   5.462   6.855  0.1380  0.8400 -0.5408
 1151DECAN   C111491   8.192   0.289   6.406  0.1440 -0.1948 -0.2360
 1151DECAN   C211492   8.105   0.162   6.407 -0.2245  0.0557 -0.4316
 1151DECAN   C311493   8.141   0.056   6.513  0.1306  0.3662 -0.2401
 1151DECAN   C411494   8.121   0.097   6.660 -0.0917 -0.5439 -0.0130
 1151DECAN   C511495   8.123  11.224   6.760  0.0253 -0.9220 -0.4530
 1151DECAN   C611496   7.993  11.141   6.758 -0.4460 -0.1953 -0.2038
 1151DECAN   C711497   7.990  11.013   6.673  0.1013 -0.4204  0.1188
 1151DECAN   C811498   7.854  10.941   6.674  0.0579 -0.3489 -0.5866
 1151DECAN   C911499   7.747  11.043   6.629 -0.3855 -0.2352  0.6722
 1151DECAN  C1011500   7.612  10.982   6.590 -0.3448  0.5526 -0.7847
 1152DECAN   C111501   3.994   6.861   4.174  0.3660  0.5151  0.0931
 1152DECAN   C211502   3.945   7.007   4.172 -0.4000  0.2619 -0.0208
 1152DECAN   C311503   3.969   7.060   4.314 -0.0680 -0.2314  0.1086
 1152DECAN   C411504   3.979   7.212   4.337  0.0879 -0.1931 -0.2111
 1152DECAN   C511505   4.091   7.271   4.249 -0.2621  0.0051 -0.5262
 1152DECAN   C611506   4.112   7.421   4.273 -0.4751 -0.0833  0.2408
 1152DECAN   C711507   3.995   7.500   4.211 -0.6803  0.1762  0.9479
 1152DECAN   C811508   4.002   7.651   4.242  0.3187  0.2389  0.4721
 1152DECAN   C911509   3.860   7.699   4.206  0.3068  0.1465  0.3950
 1152DECAN  C1011510   3.820   7.845   4.233 -0.6271  0.0572 -0.4594
 1153DECAN   C111511   3.609   9.093   6.712  0.5453  0.1537  0.4520
 1153DECAN   C211512   3.561   9.240   6.703 -0.0355 -0.0980 -0.8509
 1153DECAN   C311513   3.549   9.276   6.554  0.4898 -0.6750 -1.0368
 1153DECAN   C411514   3.678   9.341   6.504  0.1834  0.5616 -0.2563
 1153DECAN   C511515   3.675   9.391   6.358 -0.3227  0.3251 -0.3267
 1153DECAN   C611516   3.805   9.464   6.319 -0.0132 -0.0407  0.0075
 1153DECAN   C711517   3.811   9.511   6.172 -0.1635 -0.1423 -0.0311
 1153DECAN   C811518   3.951   9.564   6.139 -0.2008 -0.3481 -0.5354
 1153DECAN   C911519   3.984   9.639   6.009 -0.1562 -0.5913 -0.6648
 1153DECAN  C1011520   4.131   9.682   5.992 -0.0964 -0.3516  0.3986
 1154DECAN   C111521   1.931   0.694   7.714  0.3864 -0.0807 -0.0809
 1154DECAN   C211522   2.012   0.795   7.630  0.0663  0.0879 -0.1911
 1154DECAN   C311523   2.150   0.842   7.679 -0.1681  0.4261  0.1496
 1154DECAN   C411524   2.141   0.877   7.829 -0.2860  0.7221  0.0749
 1154DECAN   C511525   2.272   0.892   7.908 -0.1567 -0.2771  0.0730
 1154DECAN   C611526   2.271   0.859   8.059 -0.4644 -0.1012  0.1105
 1154DECAN   C711527   2.404   0.887   8.131 -0.3066 -0.2151 -0.1325
 1154DECAN   C811528   2.406   0.836   8.277  0.3605 -0.0986 -0.0952
 1154DECAN   C911529   2.371   0.688   8.306  0.3140 -0.2178 -0.7420
 1154DECAN  C1011530   2.345   0.651   8.453 -0.0789  0.1901 -0.7051
 1155DECAN   C111531   8.720   2.112  13.681  0.1166  0.1310  0.4415
 1155DECAN   C211532   8.787   2.108  13.543 -0.6621 -0.5079  0.0734
 1155DECAN   C311533   8.740   2.223  13.453  0.0752 -0.2560  0.0062
 1155DECAN   C411534   8.811   2.216  13.316 -0.2016  0.2515 -0.1655
 1155DECAN   C511535   8.784   2.330  13.215  0.3178  0.5139 -0.0115
 1155DECAN   C611536   8.855   2.317  13.079  0.1980  0.0973 -0.0360
 1155DECAN   C711537   8.856   2.437  12.982 -0.1245  0.3479  0.2663
 1155DECAN   C811538   8.914   2.390  12.848 -0.1976  0.5505  0.1636
 1155DECAN   C911539   8.903   2.511  12.753  0.4235  0.1790 -0.3866
 1155DECAN  C1011540   8.966   2.476  12.616  0.3192 -0.3283 -0.3077
 1156DECAN   C111541   5.343   3.105   7.812 -0.1193  0.6098  0.9293
 1156DECAN   C211542   5.445   2.990   7.810 -0.1703  0.5758 -0.2819
 1156DECAN   C311543   5.548   3.015   7.922 -0.0450  0.2847 -0.3303
 1156DECAN   C411544   5.659   2.908   7.922 -0.7971 -0.5181  0.0420
 1156DECAN   C511545   5.750   2.928   7.799 -0.4728 -0.2546  0.3256
 1156DECAN   C611546   5.677   2.895   7.668 -0.3135 -0.3220  0.2540
 1156DECAN   C711547   5.783   2.891   7.556 -0.4020 -0.1589  0.1650
 1156DECAN   C811548   5.737   2.847   7.415 -0.0697  0.3867 -0.1149
 1156DECAN   C911549   5.861   2.808   7.333 -0.2102 -0.2423 -0.0297
 1156DECAN  C1011550   5.825   2.757   7.192  0.3334 -0.1995 -0.1859
 1157DECAN   C111551   8.904   2.089  14.419  0.3306 -0.3224 -0.4103
 1157DECAN   C211552   8.841   2.009  14.535  0.4718  0.0245 -0.0914
 1157DECAN   C311553   8.714   2.086  14.575  0.3943 -0.1183 -0.0597
 1157DECAN   C411554   8.649   2.050  14.709  0.2728 -0.1176 -0.1178
 1157DECAN   C511555   8.526   2.139  14.734 -0.0363 -0.5444 -0.1237
 1157DECAN   C611556   8.442   2.100  14.858 -0.1514 -0.3691 -0.1464
 1157DECAN   C711557   8.528   2.077  14.984 -0.2746  0.3616  0.0788
 1157DECAN   C811558   8.611   2.201  15.019 -0.2575  0.2976  0.2644
 1157DECAN   C911559   8.724   2.165  15.118 -0.3976  0.7605  0.6000
 1157DECAN  C1011560   8.813   2.284  15.157  0.1795  0.2602  0.8222
 1158DECAN   C111561   8.585  10.824  13.176  0.6042 -0.2108  0.1831
 1158DECAN   C211562   8.527  10.901  13.056  0.1347 -0.3741  0.3035
 1158DECAN   C311563   8.473  10.811  12.944 -0.3772  0.0572  0.2019
 1158DECAN   C411564   8.567  10.696  12.904 -0.6151  0.0418 -0.3240
 1158DECAN   C511565   8.507  10.588  12.812  0.0544 -0.1364 -0.5631
 1158DECAN   C611566   8.361  10.566  12.857  0.0402  0.1977 -0.4412
 1158DECAN   C711567   8.364  10.515  13.003 -0.3452  0.5143 -0.3202
 1158DECAN   C811568   8.223  10.479  13.053 -0.2159  0.4449 -0.0017
 1158DECAN   C911569   8.210  10.447  13.203 -0.2419  0.0080 -0.0964
 1158DECAN  C1011570   8.083  10.384  13.264  0.1525 -0.4472  0.2578
 1159DECAN   C111571   6.602   9.852  11.267 -0.2183  0.3515  0.1562
 1159DECAN   C211572   6.628   9.924  11.133  0.3146 -0.1863 -0.0383
 1159DECAN   C311573   6.690  10.065  11.146  0.8579 -0.4440  0.1773
 1159DECAN   C411574   6.753  10.123  11.018  0.2684 -0.1084  0.0375
 1159DECAN   C511575   6.754  10.277  11.022 -0.1897 -0.1227  0.7541
 1159DECAN   C611576   6.821  10.369  10.918  0.4338 -0.1828  1.0935
 1159DECAN   C711577   6.830  10.512  10.973 -0.0967  0.0467  0.5948
 1159DECAN   C811578   6.886  10.611  10.869 -0.3925 -0.1076  0.2846
 1159DECAN   C911579   6.872  10.751  10.932 -0.2072 -0.1326  0.3823
 1159DECAN  C1011580   6.923  10.875  10.856  0.5994 -0.4843  0.3391
 1160DECAN   C111581   9.951   9.763  11.534  0.0765 -0.3525  0.1310
 1160DECAN   C211582   9.920   9.848  11.409 -0.4952 -0.0353  0.4878
 1160DECAN   C311583   9.980   9.789  11.281 -0.4372  0.0602  0.4704
 1160DECAN   C411584   9.935   9.868  11.156  0.5228 -0.3473 -0.1496
 1160DECAN   C511585   9.968  10.014  11.195  0.3068 -0.2921 -0.1752
 1160DECAN   C611586   9.952  10.102  11.069  0.2270  0.1731  0.1563
 1160DECAN   C711587   9.998  10.246  11.097 -0.0804  0.3789 -0.3899
 1160DECAN   C811588  10.144  10.254  11.146 -0.1009  0.0398 -0.2663
 1160DECAN   C911589  10.201  10.396  11.165  0.3692 -0.1367 -0.3551
 1160DECAN  C1011590  10.344  10.397  11.221  0.2394  0.4397 -0.0314
 1161DECAN   C111591  10.528   2.606  11.323 -0.7624 -0.0783 -0.1819
 1161DECAN   C211592  10.453   2.481  11.371 -0.3020 -0.2261  0.1683
 1161DECAN   C311593  10.315   2.463  11.305 -0.3456 -0.1014  0.2250
 1161DECAN   C411594  10.216   2.581  11.313 -0.6347 -0.3111 -0.1702
 1161DECAN   C511595  10.254   2.692  11.214 -0.2205 -0.0163  0.3176
 1161DECAN   C611596  10.174   2.689  11.083  0.7269  0.4879 -0.2876
 1161DECAN   C711597  10.025   2.722  11.102  0.5827 -0.1727 -0.2511
 1161DECAN   C811598   9.947   2.688  10.973  0.1981 -0.1679 -0.0211
 1161DECAN   C911599   9.805   2.747  10.970  0.2442 -0.0778 -0.4034
 1161DECAN  C1011600   9.726   2.718  10.841  0.2300  0.5138 -0.5324
 1162DECAN   C111601   5.112   1.981  14.982 -0.6785  0.2734  0.1887
 1162DECAN   C211602   5.015   1.862  14.968  0.0549 -0.3676  0.4901
 1162DECAN   C311603   5.082   1.729  14.930 -0.2805 -0.4164  0.0635
 1162DECAN   C411604   4.983   1.616  14.895 -0.2389 -0.5812  0.4662
 1162DECAN   C511605   5.044   1.482  14.852  0.7810  0.0615 -0.1164
 1162DECAN   C611606   4.939   1.374  14.822  0.6239  0.1445  0.1290
 1162DECAN   C711607   5.015   1.240  14.826  0.4979  0.0499 -0.4854
 1162DECAN   C811608   4.956   1.103  14.789 -0.1181  0.0742  0.3780
 1162DECAN   C911609   5.068   1.001  14.764 -0.3095 -0.0540  0.0251
 1162DECAN  C1011610   5.023   0.869  14.699 -0.3489  0.1903 -0.4498
 1163DECAN   C111611   8.693   4.280   7.750 -0.7164  0.2037 -0.3489
 1163DECAN   C211612   8.610   4.248   7.876 -0.0680 -0.0770  0.0118
 1163DECAN   C311613   8.699   4.199   7.991 -0.1176  0.1694  0.1557
 1163DECAN   C411614   8.831   4.278   8.005 -0.3866  0.6117  0.2110
 1163DECAN   C511615   8.907   4.199   8.113 -0.6127  0.3598  0.1877
 1163DECAN   C611616   9.052   4.247   8.134 -0.4153 -0.0019 -0.3510
 1163DECAN   C711617   9.156   4.225   8.023 -0.1414 -0.6307  0.0260
 1163DECAN   C811618   9.299   4.257   8.071  0.0484  0.0852 -0.9664
 1163DECAN   C911619   9.423   4.210   7.994  0.4926  0.5335 -0.5310
 1163DECAN  C1011620   9.557   4.251   8.060  0.2720 -0.0887  0.3123
 1164DECAN   C111621   3.312   6.134   9.353 -0.7822  0.5779  0.0086
 1164DECAN   C211622   3.402   6.197   9.460 -0.5256  0.5235 -0.1719
 1164DECAN   C311623   3.502   6.299   9.402  0.0170 -0.0257 -0.2020
 1164DECAN   C411624   3.594   6.367   9.505  0.2710 -0.3353 -0.2214
 1164DECAN   C511625   3.698   6.454   9.432  0.0703 -0.3028 -0.4691
 1164DECAN   C611626   3.810   6.509   9.522 -0.6009 -0.5863  0.5560
 1164DECAN   C711627   3.921   6.408   9.556 -0.1290 -0.2891 -0.0872
 1164DECAN   C811628   4.036   6.409   9.453  0.1261 -0.2800  0.1952
 1164DECAN   C911629   4.105   6.273   9.432  0.4813  0.0187 -0.6477
 1164DECAN  C1011630   4.237   6.279   9.354  0.5832  0.1893 -0.4610
 1165DECAN   C111631   1.859  10.847   8.283  0.0426  0.0797  0.3429
 1165DECAN   C211632   1.962  10.736   8.256 -0.3634 -0.2872  0.2894
 1165DECAN   C311633   1.982  10.733   8.104  0.5439 -0.2822  0.4017
 1165DECAN   C411634   2.100  10.640   8.069  0.5005 -0.0077 -0.5072
 1165DECAN   C511635   2.095  10.493   8.114 -0.0472  0.0677 -0.3107
 1165DECAN   C611636   2.234  10.428   8.098  0.0697  0.1981  0.1576
 1165DECAN   C711637   2.253  10.276   8.120 -0.5601  0.0925 -0.0221
 1165DECAN   C811638   2.240  10.223   8.263  0.1721  0.0255  0.0243
 1165DECAN   C911639   2.316  10.090   8.281  0.2115  0.0314 -0.0985
 1165DECAN  C1011640   2.461  10.083   8.229  0.4527  0.2129  0.5374
 1166DECAN   C111641   3.151   5.046  14.629  0.1276  0.3459  0.4103
 1166DECAN   C211642   3.200   4.900  14.618  0.2948  0.4034  0.4048
 1166DECAN   C311643   3.164   4.815  14.741 -0.1884 -0.3465 -0.2449
 1166DECAN   C411644   3.013   4.783  14.743 -0.1717 -0.3969  0.4228
 1166DECAN   C511645   2.914   4.901  14.737  0.0520 -0.2482 -0.5528
 1166DECAN   C611646   2.771   4.845  14.748 -0.1277  0.3581  0.2915
 1166DECAN   C711647   2.669   4.958  14.718  0.2639  0.7659  0.4851
 1166DECAN   C811648   2.520   4.926  14.699  0.5757 -0.3959 -0.1054
 1166DECAN   C911649   2.459   4.831  14.803 -0.2390  0.2085 -0.0235
 1166DECAN  C1011650   2.515   4.688  14.810  0.0367  0.2851 -0.6466
 1167DECAN   C111651   3.584   8.943  12.158  0.3240  0.2594  0.1844
 1167DECAN   C211652   3.530   8.863  12.038 -0.2878  0.0190  0.6161
 1167DECAN   C311653   3.520   8.943  11.907 -0.1464 -0.1850  0.4790
 1167DECAN   C411654   3.442   8.869  11.797  0.0409  0.8013 -0.3381
 1167DECAN   C511655   3.495   8.736  11.740  0.1959  0.6818  0.0834
 1167DECAN   C611656   3.611   8.761  11.642  0.0807 -0.3748 -0.3381
 1167DECAN   C711657   3.660   8.625  11.590  0.3107 -0.3897 -0.0905
 1167DECAN   C811658   3.571   8.551  11.488 -0.3103  0.1959  0.0199
 1167DECAN   C911659   3.607   8.401  11.486  0.6921  0.4337 -0.4758
 1167DECAN  C1011660   3.519   8.316  11.393  0.4796  0.2348 -0.0946
 1168DECAN   C111661   4.905   4.958  10.610 -0.1166 -0.2437  0.1206
 1168DECAN   C211662   5.023   5.055  10.633 -0.2491 -0.1001  0.1914
 1168DECAN   C311663   5.042   5.092  10.781 -0.1924 -0.4564  0.2738
 1168DECAN   C411664   5.113   5.228  10.801 -0.2035 -0.4203  0.0691
 1168DECAN   C511665   5.017   5.341  10.762 -0.6119 -0.5957  0.5538
 1168DECAN   C611666   4.983   5.360  10.613 -0.4405 -0.1822  0.5664
 1168DECAN   C711667   4.884   5.478  10.604 -0.0767  0.0913  0.0416
 1168DECAN   C811668   4.868   5.523  10.458  0.0162 -0.0693 -0.0182
 1168DECAN   C911669   4.992   5.592  10.399 -0.4109  0.2845 -0.5123
 1168DECAN  C1011670   4.977   5.627  10.250  0.1414  0.4512 -0.5319
 1169DECAN   C111671   8.468   8.354   4.751  0.1929  0.1037  0.6373
 1169DECAN   C211672   8.450   8.414   4.610 -0.0400 -0.3715  0.4614
 1169DECAN   C311673   8.315   8.417   4.536  0.4401 -0.3370 -0.4256
 1169DECAN   C411674   8.301   8.502   4.408 -0.0601  0.0920 -0.0933
 1169DECAN   C511675   8.313   8.655   4.419 -0.1392  0.0932 -0.0210
 1169DECAN   C611676   8.303   8.723   4.281  0.3093 -0.1377 -0.1710
 1169DECAN   C711677   8.158   8.713   4.231  0.1624  0.2114  0.1814
 1169DECAN   C811678   8.143   8.783   4.095  0.2935  0.4303  0.2807
 1169DECAN   C911679   8.207   8.702   3.981 -0.9499  0.0924 -0.1861
 1169DECAN  C1011680   8.204   8.767   3.841 -0.0018  0.1139 -0.2001
 1170DECAN   C111681   2.411   6.526  13.355 -0.0243  0.3307 -0.3309
 1170DECAN   C211682   2.322   6.651  13.338  0.1589  0.4066 -0.7478
 1170DECAN   C311683   2.207   6.643  13.237 -0.2899 -0.4044 -0.1903
 1170DECAN   C411684   2.143   6.771  13.178  0.7115  0.0597 -0.2861
 1170DECAN   C511685   2.049   6.744  13.060  0.3409  0.0822  0.0033
 1170DECAN   C611686   2.026   6.856  12.957 -0.0154  0.0698  0.0691
 1170DECAN   C711687   2.011   6.782  12.822  0.0002  0.1904  0.0018
 1170DECAN   C811688   2.000   6.878  12.702  0.5359  0.5736  0.2565
 1170DECAN   C911689   1.873   6.963  12.690  0.1681 -0.0045  0.0026
 1170DECAN  C1011690   1.835   7.039  12.819  0.5028 -0.1802  0.2038
 1171DECAN   C111691   8.725   6.789   4.738 -0.1589 -0.0914  0.8308
 1171DECAN   C211692   8.656   6.845   4.612  0.1936  0.0264  0.6911
 1171DECAN   C311693   8.518   6.902   4.649 -0.1352 -0.4545  0.2201
 1171DECAN   C411694   8.521   7.029   4.736  0.3320 -0.2921 -0.0293
 1171DECAN   C511695   8.581   7.152   4.666  0.1048 -0.3535 -0.3341
 1171DECAN   C611696   8.589   7.272   4.762 -0.2636 -0.1444 -0.5605
 1171DECAN   C711697   8.666   7.384   4.690 -0.1629  0.2255  0.1130
 1171DECAN   C811698   8.610   7.408   4.548  0.0074  0.5764  0.1056
 1171DECAN   C911699   8.709   7.482   4.456 -0.0385  0.7931  0.2295
 1171DECAN  C1011700   8.636   7.506   4.322  0.1455 -0.4523 -0.1067
 1172DECAN   C111701   9.360   3.474  12.321 -0.2673 -0.0301  0.1421
 1172DECAN   C211702   9.408   3.620  12.315 -0.0624 -0.1003  0.0547
 1172DECAN   C311703   9.552   3.638  12.264 -0.0618 -0.1230  0.0504
 1172DECAN   C411704   9.600   3.783  12.249 -0.5432  0.0483  0.1592
 1172DECAN   C511705   9.491   3.855  12.167 -0.6397  0.1958  0.4143
 1172DECAN   C611706   9.447   3.773  12.044 -0.3476 -0.2031  0.5743
 1172DECAN   C711707   9.320   3.823  11.973 -0.1992 -0.5755  0.0425
 1172DECAN   C811708   9.186   3.764  12.019 -0.2896 -0.6065 -0.2637
 1172DECAN   C911709   9.069   3.814  11.932 -0.4000  0.1304  0.3036
 1172DECAN  C1011710   9.018   3.958  11.956 -0.7988  0.0007  0.2344
 1173DECAN   C111711   6.781   8.194  14.021 -0.0954  0.2803  0.3465
 1173DECAN   C211712   6.814   8.149  14.164 -0.0087  0.0929  0.2686
 1173DECAN   C311713   6.939   8.063  14.193  0.0648  0.1257  0.0511
 1173DECAN   C411714   6.989   8.108  14.331 -0.1715  0.2887  0.0856
 1173DECAN   C511715   7.104   8.211  14.342  0.0430  0.0442  0.1372
 1173DECAN   C611716   7.144   8.264  14.481  0.1025  0.1427  0.0816
 1173DECAN   C711717   7.223   8.397  14.480  0.1566  0.1115  0.1834
 1173DECAN   C811718   7.276   8.431  14.620 -0.0510 -0.0390  0.2999
 1173DECAN   C911719   7.403   8.353  14.660  0.0466 -0.1934 -0.2930
 1173DECAN  C1011720   7.476   8.422  14.777 -0.2796  0.2017 -0.3183
 1174DECAN   C111721   9.994   3.575  12.492  0.1672  0.4764 -0.1891
 1174DECAN   C211722   9.858   3.577  12.564 -0.2580 -0.6952 -0.9428
 1174DECAN   C311723   9.842   3.467  12.670  0.0871  0.2634  0.1181
 1174DECAN   C411724   9.834   3.330  12.600  0.8608  0.0944  0.3538
 1174DECAN   C511725   9.872   3.224  12.706 -0.3383 -0.3601  0.3400
 1174DECAN   C611726  10.017   3.236  12.756 -0.2079  0.0385 -0.1288
 1174DECAN   C711727  10.073   3.156  12.874  0.3745  0.5282 -0.0693
 1174DECAN   C811728  10.218   3.198  12.907  0.4983 -0.1116  0.2109
 1174DECAN   C911729  10.311   3.156  12.791  0.4465  0.2774  0.0275
 1174DECAN  C1011730  10.462   3.167  12.817  0.5174 -0.1165 -0.2067
 1175DECAN   C111731   5.620   9.219   7.088 -0.1160 -0.4231  0.2426
 1175DECAN   C211732   5.713   9.098   7.069 -0.3827 -0.5100 -0.5766
 1175DECAN   C311733   5.853   9.138   7.019 -0.0816 -0.0727  0.5827
 1175DECAN   C411734   5.958   9.025   7.022 -0.1374 -0.1348  0.1620
 1175DECAN   C511735   6.098   9.076   6.984 -0.1028 -0.5113 -0.2250
 1175DECAN   C611736   6.200   8.960   6.979  0.2675 -0.1788 -0.4099
 1175DECAN   C711737   6.292   8.966   6.856  0.6610  0.9533 -0.0724
 1175DECAN   C811738   6.385   8.850   6.815 -0.6077 -0.1060 -0.0032
 1175DECAN   C911739   6.484   8.872   6.699 -0.4138 -0.7664  0.0322
 1175DECAN  C1011740   6.572   8.748   6.676  0.5085 -0.1070 -0.0422
 1176DECAN   C111741   7.728   6.068  13.530 -0.9198  0.3843 -0.2054
 1176DECAN   C211742   7.722   6.174  13.641 -0.3992  0.2634 -0.0611
 1176DECAN   C311743   7.717   6.122  13.786 -0.2661 -0.1268 -0.1952
 1176DECAN   C411744   7.718   6.224  13.901 -0.3339 -0.3678  0.0188
 1176DECAN   C511745   7.657   6.165  14.030 -0.1848 -0.1903  0.1723
 1176DECAN   C611746   7.598   6.269  14.128 -0.3714 -0.1680  0.0365
 1176DECAN   C711747   7.564   6.213  14.267 -0.1971  0.2669  0.2549
 1176DECAN   C811748   7.459   6.101  14.281  0.4436 -0.3464  0.1656
 1176DECAN   C911749   7.433   6.056  14.425 -0.1693 -0.2233  0.0966
 1176DECAN  C1011750   7.435   6.178  14.519  0.2932  0.1060 -0.3374
 1177DECAN   C111751   6.261   7.183  14.603 -0.6485  0.1158  0.5982
 1177DECAN   C211752   6.329   7.307  14.665 -0.4899  0.0372  0.5832
 1177DECAN   C311753   6.470   7.326  14.608 -0.4958  0.0578  0.5753
 1177DECAN   C411754   6.549   7.449  14.656 -0.0642  0.1635 -0.3812
 1177DECAN   C511755   6.691   7.468  14.601  0.0249 -0.6238 -0.4343
 1177DECAN   C611756   6.692   7.497  14.449 -0.1586  0.0161 -0.3165
 1177DECAN   C711757   6.834   7.493  14.389  0.2096  0.2912  0.5208
 1177DECAN   C811758   6.903   7.359  14.418  0.3314  0.1625 -0.3400
 1177DECAN   C911759   6.944   7.334  14.565 -0.0336  0.4075 -0.1957
 1177DECAN  C1011760   7.024   7.206  14.593  0.0929  0.4159 -0.5171
 1178DECAN   C111761   6.395   4.126  10.358  0.3073  0.5807  0.1612
 1178DECAN   C211762   6.495   4.065  10.258 -0.1965  0.1475 -0.0822
 1178DECAN   C311763   6.639   4.072  10.311 -0.1907 -0.8838  0.0428
 1178DECAN   C411764   6.743   4.017  10.211  0.1459  0.1300 -0.1753
 1178DECAN   C511765   6.888   4.006  10.262  0.0338  0.0547  0.1285
 1178DECAN   C611766   6.992   3.959  10.159 -0.1776  0.4465 -0.2659
 1178DECAN   C711767   7.127   4.008  10.215 -0.0520  0.3867 -0.5168
 1178DECAN   C811768   7.151   4.160  10.198  0.2438  0.4709  0.5762
 1178DECAN   C911769   7.295   4.194  10.156  0.2084 -0.2088 -0.1280
 1178DECAN  C1011770   7.402   4.122  10.240  0.3140  0.2613  0.1459
 1179DECAN   C111771   8.807   4.980   5.040 -0.0114  0.3445  0.3307
 1179DECAN   C211772   8.930   4.888   5.031 -0.2746 -0.0254  0.5411
 1179DECAN   C311773   8.945   4.781   5.141  0.1497 -0.5915 -0.0607
 1179DECAN   C411774   8.822   4.688   5.147 -0.0378 -0.3352  0.0553
 1179DECAN   C511775   8.830   4.582   5.259 -0.1644  0.0238  0.4088
 1179DECAN   C611776   8.704   4.495   5.266 -0.3037  0.1766 -0.1436
 1179DECAN   C711777   8.694   4.372   5.357 -0.1296 -0.1247 -0.5271
 1179DECAN   C811778   8.556   4.303   5.358 -0.2732  0.1628  0.3570
 1179DECAN   C911779   8.562   4.172   5.439  0.1994 -0.1715 -0.2145
 1179DECAN  C1011780   8.430   4.096   5.458 -0.0553  0.4132  0.4199
 1180DECAN   C111781   4.007   7.056   7.378  0.4799  0.0582  0.4891
 1180DECAN   C211782   4.038   6.922   7.447 -0.3074 -0.3198  0.1238
 1180DECAN   C311783   3.974   6.798   7.382 -0.4375  0.0436 -0.4458
 1180DECAN   C411784   3.824   6.796   7.415 -0.3985  0.0643 -0.2646
 1180DECAN   C511785   3.745   6.692   7.332 -0.2161 -0.1114 -0.2181
 1180DECAN   C611786   3.782   6.547   7.365  0.0956  0.0613  0.2072
 1180DECAN   C711787   3.686   6.437   7.317 -0.0797  0.2047  0.2280
 1180DECAN   C811788   3.755   6.301   7.293 -0.2466  0.0636  0.5545
 1180DECAN   C911789   3.649   6.192   7.268 -0.5161  0.4732 -0.1010
 1180DECAN  C1011790   3.683   6.042   7.255 -0.4927  0.4902 -0.2386
 1181DECAN   C111791   3.037   8.690  12.052 -0.2617 -0.3034 -0.2992
 1181DECAN   C211792   3.153   8.607  12.110 -0.4255 -0.5891 -0.3781
 1181DECAN   C311793   3.174   8.658  12.253  0.7628 -0.6709 -0.5181
 1181DECAN   C411794   3.280   8.575  12.329  1.0320  0.4374  0.3343
 1181DECAN   C511795   3.296   8.613  12.478 -0.2496 -0.0585  0.6112
 1181DECAN   C611796   3.411   8.531  12.540  0.0367 -0.1592 -0.0469
 1181DECAN   C711797   3.426   8.561  12.690 -0.1346 -0.4702  0.0336
 1181DECAN   C811798   3.557   8.512  12.755 -0.0424 -0.0884  0.1395
 1181DECAN   C911799   3.559   8.530  12.908  0.3871  0.6858  0.0435
 1181DECAN  C1011800   3.675   8.457  12.978 -0.0268  0.1537  0.1743
 1182DECAN   C111801   7.062   3.611  15.037  0.8943 -0.2468 -0.0785
 1182DECAN   C211802   6.944   3.538  15.104  0.3803  0.2980 -0.3721
 1182DECAN   C311803   6.804   3.599  15.090  0.3609  0.3334 -0.0384
 1182DECAN   C411804   6.696   3.491  15.116  0.1875  0.4430 -0.3044
 1182DECAN   C511805   6.552   3.543  15.103 -0.1671 -0.3995  0.1845
 1182DECAN   C611806   6.437   3.442  15.116 -0.1745 -0.3427  0.5518
 1182DECAN   C711807   6.291   3.489  15.104 -0.0240 -0.1134 -0.4708
 1182DECAN   C811808   6.216   3.377  15.030 -0.1832 -0.2663 -0.0844
 1182DECAN   C911809   6.277   3.342  14.893 -0.1188 -0.2805 -0.0537
 1182DECAN  C1011810   6.177   3.244  14.828 -0.0138 -0.6876  0.3954
 1183DECAN   C111811   4.868   6.204  13.717 -0.4729 -0.1031 -0.9265
 1183DECAN   C211812   4.747   6.298  13.699 -0.1644  0.5570  0.3062
 1183DECAN   C311813   4.624   6.228  13.637  0.0808  0.5437 -0.1698
 1183DECAN   C411814   4.559   6.125  13.731  0.2757  0.2141 -0.3935
 1183DECAN   C511815   4.650   6.010  13.780 -0.0014  0.1229 -0.0863
 1183DECAN   C611816   4.654   5.886  13.689 -0.5621  0.4490 -0.5670
 1183DECAN   C711817   4.515   5.832  13.651 -0.3209 -0.1636 -0.5871
 1183DECAN   C811818   4.524   5.714  13.553  0.0217 -0.2155 -0.4964
 1183DECAN   C911819   4.588   5.580  13.594  0.0480 -0.1352 -0.2761
 1183DECAN  C1011820   4.561   5.526  13.736  0.0189 -0.2367 -0.3194
 1184DECAN   C111821   2.572   3.679   6.116  0.1711  0.1787  0.4823
 1184DECAN   C211822   2.610   3.595   5.993  0.2171 -0.1788  0.7402
 1184DECAN   C311823   2.743   3.648   5.935  0.3365 -1.0764  0.1704
 1184DECAN   C411824   2.808   3.562   5.825 -0.2709 -0.4850 -0.6611
 1184DECAN   C511825   2.945   3.618   5.783 -0.6669  0.6596 -0.4779
 1184DECAN   C611826   3.008   3.540   5.666  0.0407  0.3308  0.1073
 1184DECAN   C711827   3.129   3.605   5.597  0.2985 -0.4321 -0.1690
 1184DECAN   C811828   3.086   3.721   5.505 -0.1510 -0.2541  0.2640
 1184DECAN   C911829   2.986   3.678   5.396 -0.0771 -0.1265  0.1461
 1184DECAN  C1011830   2.967   3.800   5.304  0.2735 -0.0729  0.1413
 1185DECAN   C111831   2.648   9.183   7.227  0.1388 -0.5085 -0.2301
 1185DECAN   C211832   2.525   9.167   7.318 -0.0413 -0.2816 -0.4326
 1185DECAN   C311833   2.547   9.059   7.425  0.2255  0.2582  0.0626
 1185DECAN   C411834   2.426   9.044   7.520  0.5683  0.4820  0.5410
 1185DECAN   C511835   2.442   8.920   7.610  0.8270 -0.1897 -0.4020
 1185DECAN   C611836   2.422   8.786   7.536 -0.2572 -0.4036  0.2501
 1185DECAN   C711837   2.511   8.668   7.580 -0.2435 -0.4662  0.0510
 1185DECAN   C811838   2.659   8.698   7.551 -0.3431 -0.3506 -0.3424
 1185DECAN   C911839   2.758   8.622   7.641 -0.0118 -0.3051 -0.6662
 1185DECAN  C1011840   2.905   8.658   7.613  0.3052 -1.2332 -0.2236
 1186DECAN   C111841   8.277  10.055   5.338  0.1623  0.5447  0.1066
 1186DECAN   C211842   8.180  10.174   5.344  0.5556  0.8770 -0.0431
 1186DECAN   C311843   8.099  10.194   5.474  0.1929  0.2814 -0.1748
 1186DECAN   C411844   8.015  10.322   5.457  0.0555  0.1925 -0.1691
 1186DECAN   C511845   7.949  10.356   5.591 -0.6934 -0.7918 -0.2823
 1186DECAN   C611846   7.853  10.243   5.635 -0.7717 -0.4975  0.3188
 1186DECAN   C711847   7.742  10.223   5.530 -0.1267  0.0005 -0.4693
 1186DECAN   C811848   7.657  10.103   5.575 -0.2498  0.4975  0.6389
 1186DECAN   C911849   7.532  10.104   5.485 -0.1641  0.6291  0.5202
 1186DECAN  C1011850   7.433   9.988   5.508  0.4660  0.0259  0.2578
 1187DECAN   C111851   3.221   6.362   3.907 -0.1377  0.1820  0.4807
 1187DECAN   C211852   3.293   6.227   3.895 -0.4654  0.0253  0.2630
 1187DECAN   C311853   3.238   6.126   3.792  0.5618  0.1625 -0.4305
 1187DECAN   C411854   3.282   5.981   3.817 -0.1280  0.0899  0.4029
 1187DECAN   C511855   3.194   5.878   3.744  0.4312 -0.0662 -0.0579
 1187DECAN   C611856   3.217   5.729   3.775 -0.0293 -0.1304 -0.0204
 1187DECAN   C711857   3.351   5.685   3.714 -0.0222  0.2487 -0.2800
 1187DECAN   C811858   3.477   5.741   3.782 -0.1919  0.5112 -0.1784
 1187DECAN   C911859   3.603   5.653   3.769 -0.3916  0.1595  0.2558
 1187DECAN  C1011860   3.735   5.720   3.813 -0.3749  0.2908  0.0030
 1188DECAN   C111861   3.977  11.149  10.692 -0.2058  0.0693  0.2659
 1188DECAN   C211862   4.069  11.237  10.605 -0.4138  0.0700  0.0465
 1188DECAN   C311863   4.199   0.026  10.680 -0.5074  0.7052 -0.0659
 1188DECAN   C411864   4.183   0.072  10.826 -0.7309  0.1981  0.0735
 1188DECAN   C511865   4.117   0.211  10.841  0.4985  0.8177 -0.1278
 1188DECAN   C611866   4.107   0.245  10.990  0.2517 -0.4807  0.1610
 1188DECAN   C711867   4.038   0.383  10.997  0.9325 -0.1211 -0.2010
 1188DECAN   C811868   4.003   0.440  11.136  0.0309 -0.1607 -0.4116
 1188DECAN   C911869   3.943   0.581  11.151  0.6544  0.1002 -0.3406
 1188DECAN  C1011870   3.911   0.616  11.298 -0.4740 -1.3694 -0.2086
 1189DECAN   C111871   9.627   4.411  11.433 -0.6139  0.1020  0.2769
 1189DECAN   C211872   9.655   4.548  11.497  0.4890 -0.2904  0.6537
 1189DECAN   C311873   9.803   4.584  11.474  0.4692 -0.2687  0.5605
 1189DECAN   C411874   9.845   4.592  11.326  0.1558  0.1592  0.4908
 1189DECAN   C511875   9.968   4.679  11.295  0.3745 -0.0294  0.8184
 1189DECAN   C611876   9.947   4.831  11.282 -0.5065 -0.2155 -0.0946
 1189DECAN   C711877  10.083   4.890  11.241 -0.6029  0.2153  0.1978
 1189DECAN   C811878  10.099   5.042  11.221 -0.2612  0.1732  0.1527
 1189DECAN   C911879  10.232   5.096  11.165 -0.4978  0.2964 -0.2911
 1189DECAN  C1011880  10.250   5.248  11.179  0.5385  0.1807 -0.2916
 1190DECAN   C111881   5.502   4.980   9.328  0.5433  0.0911  0.1888
 1190DECAN   C211882   5.586   5.063   9.230 -0.4122  0.1347 -0.6060
 1190DECAN   C311883   5.670   4.971   9.139  0.6313  0.1725  0.3107
 1190DECAN   C411884   5.811   5.029   9.112  0.6614 -0.0141  0.0735
 1190DECAN   C511885   5.826   5.165   9.041 -0.5875 -0.0978 -0.3759
 1190DECAN   C611886   5.972   5.188   9.000 -0.4539 -0.2689  0.0075
 1190DECAN   C711887   6.078   5.186   9.113 -0.3522 -0.0734 -0.0838
 1190DECAN   C811888   6.226   5.217   9.084 -0.2710 -0.2031  0.1914
 1190DECAN   C911889   6.304   5.246   9.214  0.3065 -0.0678 -0.1833
 1190DECAN  C1011890   6.316   5.396   9.245  1.1350 -0.2557  0.4471
 1191DECAN   C111891   2.862   6.516  10.846  0.3077  0.2065 -0.2583
 1191DECAN   C211892   2.750   6.437  10.777  0.3997 -0.3209  0.1851
 1191DECAN   C311893   2.809   6.321  10.694  0.2084 -0.5318  0.3453
 1191DECAN   C411894   2.697   6.233  10.635 -0.2323 -0.1004  0.5330
 1191DECAN   C511895   2.567   6.310  10.602 -0.0479 -0.0461 -0.0746
 1191DECAN   C611896   2.458   6.230  10.529 -0.0389 -0.0299 -0.1056
 1191DECAN   C711897   2.329   6.312  10.509  0.0075 -0.0592 -0.5406
 1191DECAN   C811898   2.211   6.298  10.607  0.0551  0.6659 -0.3781
 1191DECAN   C911899   2.094   6.395  10.582 -0.1573  0.3614 -0.5645
 1191DECAN  C1011900   2.121   6.537  10.635  0.0905  0.0578  0.1266
 1192DECAN   C111901   2.186   2.469  14.563 -0.3908  0.3732 -0.4925
 1192DECAN   C211902   2.056   2.518  14.630 -0.2285 -0.0605  0.1497
 1192DECAN   C311903   1.941   2.415  14.630 -0.0994 -0.2063  0.0137
 1192DECAN   C411904   1.961   2.288  14.715 -0.1128 -0.2086  0.0134
 1192DECAN   C511905   1.841   2.192  14.713 -0.0615 -0.2763  0.2369
 1192DECAN   C611906   1.783   2.186  14.571  0.0101  0.7296  0.1602
 1192DECAN   C711907   1.762   2.323  14.503  0.5173  0.5525 -0.3529
 1192DECAN   C811908   1.719   2.311  14.355  0.8411  0.5437 -0.4486
 1192DECAN   C911909   1.680   2.437  14.276 -0.4268  0.1937 -0.4008
 1192DECAN  C1011910   1.656   2.408  14.127 -0.4249  0.2920 -0.4205
 1193DECAN   C111911   8.424   4.814  14.488 -0.3598 -0.4404  0.1413
 1193DECAN   C211912   8.514   4.730  14.395  0.0614  0.2665 -0.0933
 1193DECAN   C311913   8.484   4.579  14.400 -0.4883  0.3900  0.3885
 1193DECAN   C411914   8.494   4.520  14.542  0.0181  0.1592  0.2563
 1193DECAN   C511915   8.482   4.366  14.545  0.4777  0.1164  0.0287
 1193DECAN   C611916   8.465   4.313  14.689 -0.0469  0.1861 -0.0049
 1193DECAN   C711917   8.447   4.162  14.712 -0.4740  0.1840 -0.3319
 1193DECAN   C811918   8.448   4.133  14.863 -0.8053  0.5249 -0.2658
 1193DECAN   C911919   8.581   4.173  14.929 -0.4237 -0.0928 -0.6515
 1193DECAN  C1011920   8.585   4.327  14.932 -1.2021 -0.0758 -0.0360
 1194DECAN   C111921  10.091   9.807  10.287  0.1795 -0.2490  0.0453
 1194DECAN   C211922  10.055   9.956  10.297 -0.0403 -0.3124  0.2044
 1194DECAN   C311923   9.907   9.978  10.261  0.0343  0.1061  0.1483
 1194DECAN   C411924   9.874   9.943  10.115 -0.3988  0.6719  0.1096
 1194DECAN   C511925   9.725   9.967  10.081 -0.4803 -0.0252 -0.0323
 1194DECAN   C611926   9.682   9.933   9.937  0.0549 -0.0606 -0.1878
 1194DECAN   C711927   9.740  10.012   9.818 -0.2680 -0.5802 -0.6931
 1194DECAN   C811928   9.890  10.043   9.823 -0.3058 -0.4995  0.0707
 1194DECAN   C911929   9.927  10.119   9.694  0.1895  0.2423  0.6407
 1194DECAN  C1011930   9.881  10.266   9.695  0.2638  0.2684  0.3158
 1195DECAN   C111931   3.320   9.051  13.654  0.2633 -0.0377  0.0503
 1195DECAN   C211932   3.377   8.908  13.644 -0.3549 -0.3585  0.9299
 1195DECAN   C311933   3.530   8.903  13.667 -0.1609  0.2392 -0.1406
 1195DECAN   C411934   3.589   8.766  13.627 -0.0931  0.2900 -0.2128
 1195DECAN   C511935   3.743   8.761  13.632 -0.1056  0.2358  0.0939
 1195DECAN   C611936   3.811   8.628  13.594 -0.6816  0.0134 -0.1721
 1195DECAN   C711937   3.836   8.620  13.442 -0.3401  0.4720 -0.1425
 1195DECAN   C811938   3.966   8.688  13.393 -0.1200  0.1836  0.0361
 1195DECAN   C911939   3.976   8.660  13.242  0.0193  0.4942 -0.0116
 1195DECAN  C1011940   4.099   8.726  13.176  0.0661  0.3848 -0.0338
 1196DECAN   C111941   1.688   7.174   7.457 -0.0822 -0.2656  0.4341
 1196DECAN   C211942   1.621   7.311   7.479 -0.0349 -0.1543 -0.0879
 1196DECAN   C311943   1.683   7.407   7.584 -0.3403 -0.0083 -0.0411
 1196DECAN   C411944   1.630   7.551   7.585 -0.2324  0.0311 -0.0770
 1196DECAN   C511945   1.681   7.631   7.707  0.0751  0.4351 -0.4648
 1196DECAN   C611946   1.655   7.782   7.695 -0.2753  0.4126 -0.0299
 1196DECAN   C711947   1.660   7.848   7.834  0.0679 -0.0682  0.1876
 1196DECAN   C811948   1.621   7.996   7.826  0.0254 -0.0686  0.3967
 1196DECAN   C911949   1.498   8.049   7.750  0.3107 -0.0839 -0.0744
 1196DECAN  C1011950   1.492   8.202   7.734  0.0079 -0.0489  0.3818
 1197DECAN   C111951   8.114   8.628   8.451 -0.1203 -0.4028  0.0244
 1197DECAN   C211952   8.119   8.698   8.588  0.1803 -0.3779  0.0031
 1197DECAN   C311953   8.262   8.734   8.630  0.1145 -0.0298 -0.0645
 1197DECAN   C411954   8.286   8.822   8.755  0.3159  0.2816 -0.3213
 1197DECAN   C511955   8.314   8.970   8.726  0.3050  0.3146 -0.1598
 1197DECAN   C611956   8.361   9.042   8.854  0.1473  0.0811  0.0298
 1197DECAN   C711957   8.394   9.192   8.855  0.7265 -0.0423 -0.4291
 1197DECAN   C811958   8.429   9.250   8.993 -0.3362 -0.2035 -0.0863
 1197DECAN   C911959   8.557   9.196   9.061 -0.3145 -0.1183 -0.0599
 1197DECAN  C1011960   8.599   9.243   9.201 -1.2288 -0.1390  0.2287
 1198DECAN   C111961   2.922  10.495  12.470 -0.0129 -0.1225 -0.0099
 1198DECAN   C211962   2.987  10.355  12.473  0.0216 -0.1176 -0.4139
 1198DECAN   C311963   2.917  10.257  12.570  0.4756  0.3047  0.3436
 1198DECAN   C411964   2.964  10.112  12.552 -0.1327  0.1264  0.1651
 1198DECAN   C511965   2.886  10.008  12.634 -0.0959 -0.3117 -0.3490
 1198DECAN   C611966   2.908   9.863  12.587  0.0578 -0.2609 -0.4380
 1198DECAN   C711967   2.824   9.758  12.662 -0.1134  0.3200  0.1957
 1198DECAN   C811968   2.683   9.810  12.692 -0.2325  0.4633 -0.5850
 1198DECAN   C911969   2.598   9.717  12.782 -0.2461  0.3365 -0.7294
 1198DECAN  C1011970   2.541   9.602  12.697 -0.2628 -0.2814  0.1105
 1199DECAN   C111971   8.912   6.746  12.172 -0.4954  0.2333  0.4438
 1199DECAN   C211972   8.900   6.632  12.274  0.0516  0.2875  0.5693
 1199DECAN   C311973   8.824   6.674  12.401 -0.1280  0.4164  0.4193
 1199DECAN   C411974   8.680   6.718  12.371 -0.3711 -0.3917  0.3691
 1199DECAN   C511975   8.598   6.762  12.494  0.1959 -0.0300  0.6201
 1199DECAN   C611976   8.472   6.843  12.460  0.2817 -0.0044  0.3593
 1199DECAN   C711977   8.492   6.987  12.410 -0.1714  0.2013  0.7584
 1199DECAN   C811978   8.364   7.072  12.424 -0.2103  0.1961  0.4352
 1199DECAN   C911979   8.309   7.091  12.566 -0.4637  0.0948  0.3515
 1199DECAN  C1011980   8.388   7.192  12.651  0.2126  0.1414 -0.3255
 1200DECAN   C111981  10.303   5.425   8.486 -0.0055 -0.0474 -0.4910
 1200DECAN   C211982  10.289   5.498   8.620 -0.6104 -0.5003 -0.2991
 1200DECAN   C311983  10.248   5.646   8.628  0.5063 -0.1857 -0.1961
 1200DECAN   C411984  10.240   5.704   8.771  0.7957  0.2623 -0.3567
 1200DECAN   C511985  10.159   5.834   8.787  0.2281 -0.1926  0.5893
 1200DECAN   C611986  10.133   5.885   8.929 -0.2498 -0.0842  0.4642
 1200DECAN   C711987  10.258   5.899   9.019 -0.0160 -0.7697  0.2522
 1200DECAN   C811988  10.235   5.982   9.146  0.3299 -0.0705 -0.1347
 1200DECAN   C911989  10.352   6.055   9.214  0.2193 -0.0034 -0.0163
 1200DECAN  C1011990  10.307   6.161   9.318  0.5110  0.2098 -0.1056
 1201DECAN   C111991  10.037   9.853   7.461  0.0931  0.1754 -0.0836
 1201DECAN   C211992  10.089   9.709   7.480 -0.0845  0.0875 -0.2602
 1201DECAN   C311993   9.995   9.607   7.412 -0.0281  0.0202 -0.2375
 1201DECAN   C411994  10.053   9.465   7.394  0.3609  0.1740 -0.2235
 1201DECAN   C511995  10.188   9.451   7.322  0.4726  0.1608 -0.0145
 1201DECAN   C611996  10.232   9.313   7.270 -0.2056  0.0528 -0.3177
 1201DECAN   C711997  10.354   9.325   7.178  0.3181  0.4839  0.4182
 1201DECAN   C811998  10.335   9.429   7.066  0.0103  0.0825  0.0933
 1201DECAN   C911999  10.458   9.450   6.977 -0.0582  0.0116 -0.0175
 1201DECAN  C1012000  10.433   9.567   6.880  0.0938  0.2237  0.2003
 1202DECAN   C112001   5.255   6.403   5.757 -0.1289  0.2703 -0.4722
 1202DECAN   C212002   5.104   6.375   5.746 -0.1849  0.1864  0.4211
 1202DECAN   C312003   5.021   6.486   5.815  0.2686  0.8871 -0.1474
 1202DECAN   C412004   4.870   6.476   5.789  0.2467 -0.1312  0.3253
 1202DECAN   C512005   4.777   6.566   5.874 -0.1298  0.0598 -0.2820
 1202DECAN   C612006   4.631   6.526   5.845 -0.1268 -0.3738  0.2792
 1202DECAN   C712007   4.595   6.383   5.887 -0.0794 -0.2662  0.6881
 1202DECAN   C812008   4.465   6.317   5.837  0.3538 -0.5692 -0.0361
 1202DECAN   C912009   4.469   6.164   5.815 -0.2923 -0.5632 -0.2284
 1202DECAN  C1012010   4.426   6.101   5.949 -0.1743 -0.0558  0.0534
 1203DECAN   C112011   3.185   5.553   7.672 -0.0405 -0.1215 -0.2391
 1203DECAN   C212012   3.258   5.463   7.774 -0.1864  0.0895  0.0543
 1203DECAN   C312013   3.339   5.347   7.712  0.5551  0.6103  0.0303
 1203DECAN   C412014   3.386   5.230   7.801 -0.2777 -0.0305 -0.3525
 1203DECAN   C512015   3.412   5.101   7.722  0.1720 -0.3004  0.2252
 1203DECAN   C612016   3.289   5.039   7.652  0.1271 -0.2823  0.2883
 1203DECAN   C712017   3.349   4.918   7.580  0.2019  0.1584 -0.3958
 1203DECAN   C812018   3.248   4.853   7.483 -0.0898 -0.2700  0.1858
 1203DECAN   C912019   3.124   4.787   7.546 -0.2293 -0.2233 -0.0389
 1203DECAN  C1012020   3.019   4.738   7.445 -0.4381 -0.0385  0.0894
 1204DECAN   C112021   4.902   3.854   4.392  0.6092 -0.0928  0.0339
 1204DECAN   C212022   4.989   3.747   4.324  0.3020 -0.2675 -0.0819
 1204DECAN   C312023   5.058   3.657   4.428 -0.2562  0.0363  0.5596
 1204DECAN   C412024   5.103   3.748   4.543 -0.2717  0.5128  0.1952
 1204DECAN   C512025   5.204   3.848   4.484  0.3077  0.0581  0.4013
 1204DECAN   C612026   5.249   3.942   4.597 -0.3064  0.6025  0.2027
 1204DECAN   C712027   5.352   4.049   4.556  0.4381 -0.0305  0.3971
 1204DECAN   C812028   5.497   4.002   4.536  0.4052 -0.0977  0.3119
 1204DECAN   C912029   5.600   4.113   4.508  0.1123  0.1091  0.0509
 1204DECAN  C1012030   5.610   4.154   4.360 -0.7332  0.0045 -0.0415
 1205DECAN   C112031   5.716  11.019   5.275 -0.4312 -0.0040  0.7115
 1205DECAN   C212032   5.575  11.081   5.287 -0.4016  0.2018  0.0589
 1205DECAN   C312033   5.550  11.203   5.377  0.4401  0.2186  0.2851
 1205DECAN   C412034   5.405   0.010   5.389  0.3456  0.0094  0.0312
 1205DECAN   C512035   5.375   0.104   5.507 -0.0646 -0.6108  0.4263
 1205DECAN   C612036   5.226   0.129   5.538 -0.2179 -0.5292 -0.3689
 1205DECAN   C712037   5.182   0.226   5.649  0.6245  0.1516 -0.6149
 1205DECAN   C812038   5.030   0.244   5.666  0.6686  0.3457 -0.4080
 1205DECAN   C912039   4.960   0.293   5.537 -0.9366 -0.2301  0.2139
 1205DECAN  C1012040   4.963   0.202   5.413  0.4502 -0.1272  0.1517
 1206DECAN   C112041   6.205   4.014   9.579 -0.3359  0.1305  0.6003
 1206DECAN   C212042   6.066   4.069   9.538  0.0121  0.7158  0.1903
 1206DECAN   C312043   6.071   4.125   9.395  0.1858 -0.0165 -0.0994
 1206DECAN   C412044   6.199   4.208   9.373 -0.0465  0.4510  0.2899
 1206DECAN   C512045   6.329   4.134   9.408 -0.1168 -0.0594 -0.5073
 1206DECAN   C612046   6.454   4.204   9.352  0.1490  0.1376  0.3186
 1206DECAN   C712047   6.586   4.156   9.415  0.1879  0.0123  0.1436
 1206DECAN   C812048   6.706   4.244   9.375  0.1122 -0.0016 -0.1175
 1206DECAN   C912049   6.848   4.209   9.423  0.1426  0.2792 -0.0033
 1206DECAN  C1012050   6.910   4.081   9.364 -0.5207 -0.2658  0.4574
 1207DECAN   C112051   9.214  10.954   8.349  0.5729  0.8455 -0.2055
 1207DECAN   C212052   9.333  10.973   8.445  0.2070  0.4293  0.3413
 1207DECAN   C312053   9.400  10.843   8.493 -0.3757 -0.1707 -0.4439
 1207DECAN   C412054   9.317  10.745   8.578  0.3629 -0.2571  0.1920
 1207DECAN   C512055   9.254  10.817   8.698  0.0051 -0.4879  0.1455
 1207DECAN   C612056   9.202  10.724   8.810 -0.2019 -0.0612  0.4088
 1207DECAN   C712057   9.316  10.645   8.876 -0.0880 -0.3642 -0.1426
 1207DECAN   C812058   9.391  10.575   8.761 -0.3547 -0.2564 -0.3823
 1207DECAN   C912059   9.499  10.475   8.806  0.0889  0.3613 -0.0658
 1207DECAN  C1012060   9.559  10.414   8.678 -0.4260 -0.1301 -0.0761
 1208DECAN   C112061   5.676   2.519   9.278  0.2648  0.1048  0.0215
 1208DECAN   C212062   5.663   2.604   9.406  0.7325 -0.5045  0.4801
 1208DECAN   C312063   5.563   2.553   9.511  0.2888 -0.3000  0.1610
 1208DECAN   C412064   5.537   2.655   9.624 -0.4337 -0.4540  0.1422
 1208DECAN   C512065   5.442   2.769   9.585  0.8220  0.4937 -0.2400
 1208DECAN   C612066   5.466   2.877   9.692  0.5827  0.0245  0.2854
 1208DECAN   C712067   5.385   3.008   9.682  0.1500 -0.2979 -0.5093
 1208DECAN   C812068   5.237   2.971   9.699  0.1329  0.0481  0.1345
 1208DECAN   C912069   5.146   3.091   9.666 -0.4004 -0.2082  0.6534
 1208DECAN  C1012070   5.001   3.084   9.716 -0.5015  0.3053  0.4301
 1209DECAN   C112071   1.656   6.587   7.871 -0.3043 -0.1912 -0.0157
 1209DECAN   C212072   1.521   6.547   7.809 -0.4770  0.1458  0.1420
 1209DECAN   C312073   1.526   6.485   7.668 -0.3161  0.1005  0.1671
 1209DECAN   C412074   1.570   6.338   7.683 -0.3216  0.0826  0.0004
 1209DECAN   C512075   1.711   6.313   7.739 -0.3440 -0.3494 -0.1323
 1209DECAN   C612076   1.742   6.163   7.757  0.4379 -0.1695  0.0656
 1209DECAN   C712077   1.877   6.140   7.828  0.4553 -0.0261  0.0800
 1209DECAN   C812078   1.917   5.993   7.806  0.1178 -0.2277  0.7900
 1209DECAN   C912079   1.811   5.892   7.853  0.3291 -0.3171  1.0850
 1209DECAN  C1012080   1.843   5.744   7.825  0.4193 -0.1689  0.3851
 1210DECAN   C112081   9.841   4.054  12.085  0.3256  0.1806 -0.2634
 1210DECAN   C212082   9.884   4.140  12.205  0.1416  0.0888 -0.1298
 1210DECAN   C312083  10.030   4.124  12.253 -0.0019 -0.2610  0.1897
 1210DECAN   C412084  10.136   4.090  12.148 -0.5144 -0.2513 -0.3375
 1210DECAN   C512085  10.172   4.184  12.032 -0.4805 -0.0114 -0.1328
 1210DECAN   C612086  10.267   4.122  11.927  0.0628  0.2561  0.1984
 1210DECAN   C712087  10.206   4.005  11.848  0.0450  0.0181  0.5609
 1210DECAN   C812088  10.301   3.944  11.743 -0.2805 -0.2869  0.4413
 1210DECAN   C912089  10.248   3.844  11.638  0.0310  0.1969 -0.1883
 1210DECAN  C1012090  10.364   3.795  11.550 -0.3667 -0.1191 -0.5363
 1211DECAN   C112091   5.687   1.700   7.729  0.0638 -0.0561 -0.2548
 1211DECAN   C212092   5.687   1.623   7.862 -0.0831 -0.3066 -0.3995
 1211DECAN   C312093   5.574   1.523   7.892 -0.3305  0.0545 -0.1173
 1211DECAN   C412094   5.579   1.459   8.032 -0.1257  0.0677 -0.1186
 1211DECAN   C512095   5.480   1.344   8.056 -0.3334  0.1396 -0.6286
 1211DECAN   C612096   5.508   1.277   8.192 -0.4417 -0.4637 -0.8990
 1211DECAN   C712097   5.404   1.169   8.224 -0.2658 -0.4505 -0.2815
 1211DECAN   C812098   5.393   1.143   8.376 -0.7164 -0.2590 -0.2805
 1211DECAN   C912099   5.326   1.010   8.416 -0.6806 -0.1287  0.2190
 1211DECAN  C1012100   5.397   0.943   8.535  0.2923 -0.0317 -0.2947
 1212DECAN   C112101   6.725   3.711   6.943  0.0187 -0.3360 -0.2081
 1212DECAN   C212102   6.754   3.723   6.793 -0.1772  0.0405 -0.2188
 1212DECAN   C312103   6.755   3.865   6.734  0.0012  0.2481  0.2794
 1212DECAN   C412104   6.762   3.879   6.581 -0.5373 -0.0857  0.2216
 1212DECAN   C512105   6.725   4.021   6.532 -0.2321 -0.0274  0.1604
 1212DECAN   C612106   6.791   4.035   6.394  0.0672 -0.2336  0.2819
 1212DECAN   C712107   6.944   4.017   6.395  0.1056  0.0374 -0.3519
 1212DECAN   C812108   7.030   4.119   6.318  0.4223  0.4530  0.5423
 1212DECAN   C912109   7.174   4.074   6.291  0.1076 -0.1975 -0.0891
 1212DECAN  C1012110   7.251   4.034   6.419 -0.1207  0.4243  0.2476
 1213DECAN   C112111  10.849   8.812  11.898 -0.0888 -0.3879 -0.7156
 1213DECAN   C212112  10.810   8.958  11.867 -0.3032 -0.2873  0.0186
 1213DECAN   C312113  10.803   9.056  11.986 -0.0197 -0.2141 -0.0238
 1213DECAN   C412114  10.720   9.182  11.960  0.5273  0.1822  0.1435
 1213DECAN   C512115  10.705   9.276  12.081 -0.0807  0.2987 -0.0161
 1213DECAN   C612116  10.647   9.212  12.209 -0.7477  0.0636 -0.4305
 1213DECAN   C712117  10.664   9.302  12.333 -0.1167 -0.7911  0.1191
 1213DECAN   C812118  10.638   9.227  12.465 -0.4969 -0.1159  0.4324
 1213DECAN   C912119  10.651   9.316  12.590 -0.4434  0.1123  0.2678
 1213DECAN  C1012120  10.629   9.239  12.722  0.4382  0.2709  0.5148
 1214DECAN   C112121   3.437   5.385  13.142  0.2407  0.0902 -0.3239
 1214DECAN   C212122   3.541   5.473  13.215 -0.0143  0.1446 -0.0261
 1214DECAN   C312123   3.534   5.453  13.368  0.3240  0.2952  0.0115
 1214DECAN   C412124   3.645   5.528  13.443  0.4089  0.1418  0.0398
 1214DECAN   C512125   3.670   5.457  13.578  1.1591  0.4974  0.0895
 1214DECAN   C612126   3.749   5.553  13.669  0.6329  0.4676  0.5849
 1214DECAN   C712127   3.681   5.687  13.702 -0.4819  0.0624 -0.0305
 1214DECAN   C812128   3.753   5.749  13.823 -0.1151  0.1108 -0.2749
 1214DECAN   C912129   3.684   5.870  13.889  0.0662  0.2099 -0.2636
 1214DECAN  C1012130   3.685   6.000  13.807 -0.0426 -0.0359 -0.6607
 1215DECAN   C112131   2.723   0.665   8.600  0.0000  0.0616 -0.2919
 1215DECAN   C212132   2.746   0.787   8.509 -0.0947  0.1679 -0.1727
 1215DECAN   C312133   2.832   0.752   8.386 -0.4806 -0.3843 -0.2846
 1215DECAN   C412134   2.827   0.866   8.282  0.9848  0.0932  0.1403
 1215DECAN   C512135   2.874   0.836   8.139  0.0953 -0.1959 -0.1026
 1215DECAN   C612136   2.806   0.725   8.058 -0.2614 -0.3953  0.4675
 1215DECAN   C712137   2.893   0.685   7.938 -0.2017  0.5041  0.2013
 1215DECAN   C812138   2.835   0.567   7.858  0.1538  0.4303  0.0472
 1215DECAN   C912139   2.915   0.509   7.739 -0.1700  0.0485  0.0129
 1215DECAN  C1012140   2.915   0.610   7.623 -0.1251  0.0579  0.0214
 1216DECAN   C112141   4.962  10.354   8.426  0.1883 -0.0957  0.3310
 1216DECAN   C212142   4.950  10.329   8.275  0.2536 -0.0145  0.3129
 1216DECAN   C312143   5.074  10.252   8.226  0.1864 -0.0858  0.2515
 1216DECAN   C412144   5.042  10.104   8.196  0.3754 -0.1096  0.1727
 1216DECAN   C512145   5.161  10.035   8.127  0.1240 -0.0360 -0.3437
 1216DECAN   C612146   5.179   9.885   8.156  0.1765  0.0032 -0.1718
 1216DECAN   C712147   5.099   9.789   8.068  0.0038  0.1369 -0.1605
 1216DECAN   C812148   5.082   9.647   8.125 -0.2990  0.1713 -0.1616
 1216DECAN   C912149   5.016   9.540   8.036  0.6006 -0.3245 -0.2521
 1216DECAN  C1012150   4.992   9.414   8.122 -0.1148 -0.0727 -0.0727
 1217DECAN   C112151   2.591   1.727   7.783 -0.1461  0.1716 -0.0494
 1217DECAN   C212152   2.521   1.852   7.838  0.1424  0.1461  0.3738
 1217DECAN   C312153   2.545   1.874   7.989 -0.0363  0.2609  0.3867
 1217DECAN   C412154   2.488   1.999   8.058 -0.2307  0.5878 -0.3613
 1217DECAN   C512155   2.563   2.130   8.028  0.4360  0.1958 -0.4238
 1217DECAN   C612156   2.471   2.253   8.046 -0.3184 -0.2854 -0.9549
 1217DECAN   C712157   2.532   2.377   7.979  0.2799  0.0951  0.2620
 1217DECAN   C812158   2.673   2.402   8.034  0.0742  0.5887  0.5729
 1217DECAN   C912159   2.700   2.405   8.186 -0.0085 -0.3426  0.6093
 1217DECAN  C1012160   2.852   2.395   8.204  0.2077  0.1978 -0.8157
 1218DECAN   C112161   5.414   0.049  14.096  0.2329  0.1580  0.2635
 1218DECAN   C212162   5.358   0.094  14.232 -0.4636  0.4556 -0.1160
 1218DECAN   C312163   5.389   0.243  14.256 -0.3332  0.4814 -0.4407
 1218DECAN   C412164   5.366   0.284  14.403  0.1695 -0.3937 -0.1103
 1218DECAN   C512165   5.346   0.433  14.437 -0.3971 -0.5871  0.3988
 1218DECAN   C612166   5.342   0.456  14.590 -0.0921 -0.2874  0.3607
 1218DECAN   C712167   5.310   0.601  14.629  0.3915 -0.0480 -0.1196
 1218DECAN   C812168   5.421   0.691  14.570  0.1682 -0.1680 -0.7372
 1218DECAN   C912169   5.414   0.845  14.566  0.3144 -0.1114  0.6331
 1218DECAN  C1012170   5.305   0.906  14.476  0.6513 -0.3005  0.0922
 1219DECAN   C112171   4.347   6.069   6.459  0.9404 -0.4798 -0.1068
 1219DECAN   C212172   4.333   5.919   6.491 -0.4524 -0.3991 -0.2997
 1219DECAN   C312173   4.464   5.842   6.463 -0.0209  0.2879 -0.1818
 1219DECAN   C412174   4.538   5.854   6.329  0.6153  0.2446  0.1638
 1219DECAN   C512175   4.633   5.741   6.285  0.4948  0.1396  0.1753
 1219DECAN   C612176   4.677   5.756   6.138 -0.1090  0.2680  0.0032
 1219DECAN   C712177   4.757   5.629   6.100  0.0054  0.2799  0.2018
 1219DECAN   C812178   4.809   5.627   5.955  0.2270 -0.1748  0.2865
 1219DECAN   C912179   4.810   5.768   5.893  0.5886 -0.2273  0.1724
 1219DECAN  C1012180   4.857   5.773   5.746 -0.0778  0.5650 -0.0214
 1220DECAN   C112181   9.229  11.155  13.787 -0.3787  0.1345 -0.5978
 1220DECAN   C212182   9.155  11.097  13.665 -0.6314 -0.1106 -0.3301
 1220DECAN   C312183   9.182  10.951  13.625 -0.2489  0.0574 -0.6877
 1220DECAN   C412184   9.149  10.843  13.729  0.1755 -0.0697 -0.6804
 1220DECAN   C512185   9.175  10.700  13.677 -0.1828 -0.2773 -0.3028
 1220DECAN   C612186   9.112  10.601  13.776  0.2703  0.0597  0.3313
 1220DECAN   C712187   9.122  10.456  13.724 -0.3181  0.2405 -0.3078
 1220DECAN   C812188   9.032  10.351  13.791  0.0415 -0.0983 -0.3545
 1220DECAN   C912189   8.881  10.377  13.771  0.0531  0.2319 -0.0144
 1220DECAN  C1012190   8.825  10.490  13.859 -0.6087  0.0759 -0.2349
 1221DECAN   C112191   3.441   4.798   4.879  0.4582 -0.1781 -0.0321
 1221DECAN   C212192   3.387   4.756   5.016  0.4632  0.9236  0.3229
 1221DECAN   C312193   3.253   4.830   5.032 -0.2185 -0.1447 -0.2641
 1221DECAN   C412194   3.258   4.982   5.008  0.2979 -0.1584 -0.2533
 1221DECAN   C512195   3.374   5.055   5.079  0.2071 -0.2996  0.0372
 1221DECAN   C612196   3.358   5.208   5.081  0.1589 -0.3066  0.8865
 1221DECAN   C712197   3.492   5.283   5.084 -0.1250  0.2799 -0.3355
 1221DECAN   C812198   3.492   5.435   5.058  0.3678  0.2898 -0.2943
 1221DECAN   C912199   3.418   5.520   5.163  0.0086 -0.0950 -0.2308
 1221DECAN  C1012200   3.422   5.671   5.132  0.0502 -0.0814 -0.1595
 1222DECAN   C112201   8.152   7.949   7.381 -0.1586  0.2765  0.7097
 1222DECAN   C212202   8.254   8.055   7.425  0.1614  0.1525  0.2713
 1222DECAN   C312203   8.392   7.998   7.463  0.0970  0.1161  0.4494
 1222DECAN   C412204   8.484   8.097   7.538  0.0477  0.3873  0.1556
 1222DECAN   C512205   8.558   8.192   7.442  0.0458  0.6058  0.3711
 1222DECAN   C612206   8.648   8.306   7.493  0.2962  0.3767  0.4425
 1222DECAN   C712207   8.679   8.415   7.389  0.0543  0.1280  0.1084
 1222DECAN   C812208   8.757   8.534   7.447  0.4235 -0.2697  0.4356
 1222DECAN   C912209   8.775   8.642   7.339  0.0991 -0.2437  0.4082
 1222DECAN  C1012210   8.881   8.751   7.361  0.1525 -0.1493 -0.2908
 1223DECAN   C112211   6.402   1.103   5.974 -0.7304  0.5354  0.0316
 1223DECAN   C212212   6.543   1.120   6.035 -0.4253 -0.2696 -0.4281
 1223DECAN   C312213   6.558   1.242   6.128  0.1521 -0.2567 -0.5401
 1223DECAN   C412214   6.700   1.273   6.180 -0.1534  0.3915 -0.0771
 1223DECAN   C512215   6.782   1.354   6.079 -0.1074  0.0298 -0.3336
 1223DECAN   C612216   6.918   1.415   6.120 -0.2192  0.5031 -0.6585
 1223DECAN   C712217   7.005   1.490   6.017  0.0660 -0.0857 -0.8455
 1223DECAN   C812218   7.147   1.535   6.057 -0.3160  0.4553 -0.0804
 1223DECAN   C912219   7.232   1.606   5.950  0.3570  0.1686  0.2594
 1223DECAN  C1012220   7.372   1.639   6.003  0.3335  0.0851  0.3748
 1224DECAN   C112221   4.729   2.112   8.456  0.0390  0.1556 -0.0212
 1224DECAN   C212222   4.685   2.255   8.419 -0.2661  0.0450 -0.0832
 1224DECAN   C312223   4.686   2.286   8.268  0.1908 -0.0858 -0.1103
 1224DECAN   C412224   4.640   2.430   8.238  0.4197  0.0074 -0.0117
 1224DECAN   C512225   4.638   2.467   8.088  0.5639 -0.5953 -0.1648
 1224DECAN   C612226   4.622   2.619   8.068 -0.1949 -0.6151  0.2399
 1224DECAN   C712227   4.584   2.659   7.924  0.0366 -0.1929  0.2947
 1224DECAN   C812228   4.518   2.798   7.908 -0.0144 -0.2347  0.1425
 1224DECAN   C912229   4.607   2.913   7.958  0.0517 -0.1375 -0.2005
 1224DECAN  C1012230   4.526   3.044   7.952  0.0968 -0.0692  0.6676
 1225DECAN   C112231   2.350   0.907   9.397  0.5804 -0.4109  0.4770
 1225DECAN   C212232   2.237   0.890   9.294  1.1927  0.1125 -0.2909
 1225DECAN   C312233   2.217   0.744   9.249  0.1874  0.0220  0.4337
 1225DECAN   C412234   2.150   0.718   9.113  0.6160 -0.4243  0.3053
 1225DECAN   C512235   2.156   0.576   9.054 -0.1338 -0.2839 -0.1190
 1225DECAN   C612236   2.121   0.560   8.905  0.6424 -0.1363 -0.3188
 1225DECAN   C712237   2.103   0.417   8.849 -0.0669 -0.0211 -0.3909
 1225DECAN   C812238   2.147   0.393   8.703 -0.1067 -0.1315 -0.3852
 1225DECAN   C912239   2.173   0.245   8.671 -0.3541 -0.1366 -0.5619
 1225DECAN  C1012240   2.226   0.227   8.527  0.2604  0.1640 -0.3782
 1226DECAN   C112241   2.002   4.024   4.505  0.1402 -0.6531  0.4333
 1226DECAN   C212242   2.014   4.005   4.657  0.2402 -0.2719  0.4734
 1226DECAN   C312243   2.097   3.886   4.710  0.5405 -0.0443  0.5168
 1226DECAN   C412244   2.051   3.841   4.850  0.0829 -0.0554  0.3644
 1226DECAN   C512245   2.136   3.724   4.901 -0.0260 -0.2374  0.1348
 1226DECAN   C612246   2.064   3.632   5.002  0.3812 -0.0849  0.5723
 1226DECAN   C712247   2.155   3.517   5.049  0.3734 -0.5735 -0.5765
 1226DECAN   C812248   2.273   3.560   5.137 -0.1878  0.0702 -0.1259
 1226DECAN   C912249   2.366   3.671   5.086  0.1692 -0.4216 -0.5563
 1226DECAN  C1012250   2.486   3.702   5.178 -0.5831  0.6571  0.0800
 1227DECAN   C112251   3.793  11.105  11.115 -0.0810  0.0449  0.2952
 1227DECAN   C212252   3.936  11.141  11.159 -0.0171  0.0355  0.0974
 1227DECAN   C312253   4.029  11.017  11.163 -0.3282 -0.2338 -0.8124
 1227DECAN   C412254   4.055  10.957  11.024 -0.4109 -0.4555 -0.7324
 1227DECAN   C512255   4.098  10.809  11.026  0.0938 -0.3067  0.6986
 1227DECAN   C612256   4.131  10.774  10.879 -0.0678 -0.1282  0.6197
 1227DECAN   C712257   4.207  10.640  10.876 -0.5875 -0.4097 -0.3564
 1227DECAN   C812258   4.255  10.611  10.733 -0.4075 -0.4880 -0.2817
 1227DECAN   C912259   4.355  10.494  10.734  0.3580  0.1614 -0.3537
 1227DECAN  C1012260   4.427  10.450  10.605  0.0575 -0.4892 -0.3053
 1228DECAN   C112261   9.253  10.753  11.172 -0.8628  0.3418  0.0765
 1228DECAN   C212262   9.292  10.699  11.311 -0.4479  0.1192 -0.1252
 1228DECAN   C312263   9.327  10.550  11.302  0.0736  0.2367 -0.0821
 1228DECAN   C412264   9.344  10.468  11.431  0.4820 -0.0395 -0.3088
 1228DECAN   C512265   9.380  10.319  11.411 -0.2697 -0.2443 -0.1766
 1228DECAN   C612266   9.434  10.245  11.535 -0.2008 -1.1187 -0.7234
 1228DECAN   C712267   9.326  10.219  11.642  0.3393 -0.3888  0.0151
 1228DECAN   C812268   9.314  10.341  11.734 -0.0328 -0.1569 -0.3370
 1228DECAN   C912269   9.196  10.333  11.833  0.3227 -0.0622  0.1010
 1228DECAN  C1012270   9.057  10.337  11.766  0.3565 -0.1221  0.0270
 1229DECAN   C112271   7.832   4.381   9.048 -0.0842 -0.5162 -0.4883
 1229DECAN   C212272   7.735   4.454   8.952 -0.2271 -0.0451  0.0092
 1229DECAN   C312273   7.720   4.380   8.818 -0.1831 -0.1160  0.0419
 1229DECAN   C412274   7.609   4.434   8.726  0.3896  0.6142 -0.2312
 1229DECAN   C512275   7.600   4.348   8.598 -0.3322  0.7833 -0.2978
 1229DECAN   C612276   7.717   4.367   8.501  0.0641  0.3316  0.0876
 1229DECAN   C712277   7.856   4.328   8.556  0.0260  0.6302  0.3985
 1229DECAN   C812278   7.964   4.299   8.450 -0.5931  0.2046 -0.1296
 1229DECAN   C912279   7.916   4.180   8.365 -0.4468  0.1428 -0.1254
 1229DECAN  C1012280   8.002   4.150   8.241 -0.0317 -0.1613  0.2323
 1230DECAN   C112281   3.178   2.972  11.607  0.2945  0.2079 -0.0582
 1230DECAN   C212282   3.266   3.036  11.498 -0.4457  0.5719 -0.4511
 1230DECAN   C312283   3.377   3.127  11.555 -0.1977 -0.1729  0.2878
 1230DECAN   C412284   3.466   3.190  11.446 -0.2272 -0.0192  0.3534
 1230DECAN   C512285   3.575   3.285  11.499 -0.0485  0.0776 -0.1833
 1230DECAN   C612286   3.628   3.356  11.373 -0.2072  0.4722 -0.0305
 1230DECAN   C712287   3.771   3.414  11.379 -0.0344  0.0875 -0.3291
 1230DECAN   C812288   3.814   3.494  11.255 -0.2856 -0.1393 -0.5635
 1230DECAN   C912289   3.940   3.579  11.278 -0.0890 -0.4554 -0.4639
 1230DECAN  C1012290   3.993   3.666  11.162 -0.1623 -0.9302 -0.8543
 1231DECAN   C112291   9.869   6.804   8.549  0.2996 -0.1546  0.0105
 1231DECAN   C212292   9.973   6.854   8.652 -0.1795  0.7171  0.0784
 1231DECAN   C312293   9.902   6.878   8.787  0.0604  0.0980  0.3200
 1231DECAN   C412294   9.982   6.941   8.903  0.1049  0.4789  0.0847
 1231DECAN   C512295  10.036   6.838   9.003 -0.1322  0.2812  0.0108
 1231DECAN   C612296   9.937   6.797   9.113 -0.3005 -0.4869 -0.4168
 1231DECAN   C712297   9.988   6.692   9.213  0.2276  0.3242  0.1820
 1231DECAN   C812298   9.885   6.626   9.306 -0.2832 -0.1584 -0.7096
 1231DECAN   C912299   9.953   6.535   9.410 -0.3705  0.2790 -0.2651
 1231DECAN  C1012300  10.004   6.402   9.351 -0.2869  0.1781  0.0336
 1232DECAN   C112301   4.091   9.362  12.428 -0.1794 -0.0113  0.1568
 1232DECAN   C212302   4.017   9.477  12.358  0.2875  0.1322 -0.1032
 1232DECAN   C312303   4.072   9.611  12.412 -0.4642  0.2642  0.3468
 1232DECAN   C412304   4.013   9.669  12.542 -0.5742  0.5706  0.1628
 1232DECAN   C512305   4.087   9.792  12.597 -0.2456  0.4759 -0.0623
 1232DECAN   C612306   4.031   9.829  12.736  0.0404 -0.0966  0.2103
 1232DECAN   C712307   4.092   9.962  12.786 -0.0267 -0.0808  0.2525
 1232DECAN   C812308   4.013  10.027  12.901 -0.0632 -0.1791  0.2827
 1232DECAN   C912309   3.890  10.100  12.846 -0.0352 -0.3512 -0.0103
 1232DECAN  C1012310   3.842  10.200  12.953  0.0378  0.1891 -0.4771
 1233DECAN   C112311  11.065   7.867  10.353  0.1928 -0.1766  0.6203
 1233DECAN   C212312  10.929   7.896  10.420 -0.1646 -0.2762 -0.0584
 1233DECAN   C312313  10.909   8.041  10.466 -0.3738 -0.2851 -0.1236
 1233DECAN   C412314  11.005   8.091  10.575 -0.5963  1.1374 -0.5554
 1233DECAN   C512315  10.954   8.225  10.632 -0.3692  0.9692  0.0587
 1233DECAN   C612316  10.957   8.345  10.535 -0.0451  0.2251 -0.8682
 1233DECAN   C712317  10.853   8.345  10.421  0.1666 -0.1478 -1.0634
 1233DECAN   C812318  10.807   8.482  10.369 -0.0901  0.1494 -0.0759
 1233DECAN   C912319  10.897   8.529  10.253 -0.1929  0.7472  0.0788
 1233DECAN  C1012320  11.001   8.621  10.319  0.6084  0.1426 -0.3038
 1234DECAN   C112321   6.954   4.051  14.922  0.2408 -0.0635  0.0089
 1234DECAN   C212322   6.905   4.149  15.030 -0.3616 -0.3578  0.0082
 1234DECAN   C312323   7.018   4.246  15.069 -0.4241  0.0029 -0.6999
 1234DECAN   C412324   7.152   4.179  15.103 -0.3899  0.3125 -0.2075
 1234DECAN   C512325   7.236   4.278  15.185  0.4300 -0.5389 -0.0010
 1234DECAN   C612326   7.293   4.401  15.110 -0.3441 -0.1452  0.0464
 1234DECAN   C712327   7.380   4.354  14.991 -0.2482  0.0227  0.0491
 1234DECAN   C812328   7.442   4.471  14.914 -0.3262  0.1208  0.1354
 1234DECAN   C912329   7.526   4.434  14.791 -0.6753  0.1188 -0.1010
 1234DECAN  C1012330   7.564   4.560  14.711  0.5408 -0.1694 -0.0067
 1235DECAN   C112331   1.700   7.671  10.527 -0.2497  0.0532  0.5225
 1235DECAN   C212332   1.835   7.596  10.531 -0.1154  0.3120  0.8582
 1235DECAN   C312333   1.950   7.690  10.488 -0.1283  0.1107  0.3728
 1235DECAN   C412334   2.073   7.672  10.578  0.0574 -0.2668  0.0480
 1235DECAN   C512335   2.050   7.692  10.729  0.4532  0.4431  0.0165
 1235DECAN   C612336   2.000   7.830  10.776 -0.0822  0.0879  0.4981
 1235DECAN   C712337   1.935   7.834  10.916 -0.2059  0.1547  0.4376
 1235DECAN   C812338   1.854   7.961  10.949 -0.0369  0.4439 -0.2358
 1235DECAN   C912339   1.759   7.948  11.070  0.2467  0.6177  0.0071
 1235DECAN  C1012340   1.680   8.077  11.098  0.1019  0.5110  0.0937
 1236DECAN   C112341   2.232  10.960  12.431 -0.3342  0.1050 -0.0664
 1236DECAN   C212342   2.259  11.101  12.376 -1.0415  0.3538  0.2111
 1236DECAN   C312343   2.273  11.205  12.489  0.2425  0.2546  0.1589
 1236DECAN   C412344   2.313   0.101  12.441  0.2798  0.2478  0.1698
 1236DECAN   C512345   2.340   0.190  12.564  1.0581  0.6558 -0.2864
 1236DECAN   C612346   2.440   0.127  12.663  0.3388  0.1487  0.1279
 1236DECAN   C712347   2.443   0.228  12.780 -0.2015 -0.5757  0.7718
 1236DECAN   C812348   2.518   0.179  12.905 -0.0651 -0.4041  0.7570
 1236DECAN   C912349   2.669   0.148  12.897 -0.1600 -0.6712 -0.1564
 1236DECAN  C1012350   2.751   0.262  12.835 -0.2319 -0.0900  0.7927
 1237DECAN   C112351   9.147   8.231  13.029 -0.7054 -0.0718 -0.3055
 1237DECAN   C212352   9.147   8.125  12.917 -0.0777  0.0115 -0.3877
 1237DECAN   C312353   9.014   8.118  12.840 -0.2308  0.4894 -0.1713
 1237DECAN   C412354   9.026   8.013  12.728 -0.6885  0.1939  0.0491
 1237DECAN   C512355   8.916   8.026  12.621 -0.3457  0.0953 -0.3176
 1237DECAN   C612356   8.944   7.962  12.483  0.4666 -0.1661 -0.0394
 1237DECAN   C712357   8.820   7.966  12.392  0.5262  0.4103 -0.0958
 1237DECAN   C812358   8.695   7.884  12.429  0.3074  0.9278  0.3240
 1237DECAN   C912359   8.563   7.936  12.369  0.2015  0.3223  0.0255
 1237DECAN  C1012360   8.541   7.894  12.223  1.3157 -0.3133  0.0290
 1238DECAN   C112361   4.417  11.161  11.075 -0.2951  0.4049  0.0373
 1238DECAN   C212362   4.526  11.138  10.968 -0.1663  0.2639  0.1994
 1238DECAN   C312363   4.649  11.055  11.006  0.1045  0.2092 -0.7701
 1238DECAN   C412364   4.727  11.122  11.121 -0.2403 -0.7268  0.0264
 1238DECAN   C512365   4.648  11.116  11.253  0.4352 -1.1694  0.4131
 1238DECAN   C612366   4.717  11.183  11.373  0.0522 -0.0863  0.0408
 1238DECAN   C712367   4.656  11.154  11.512  0.0361  0.0731  0.0669
 1238DECAN   C812368   4.737  11.221  11.624 -0.4475  0.7706  0.0070
 1238DECAN   C912369   4.675  11.228  11.765 -0.0315 -0.9156  0.2903
 1238DECAN  C1012370   4.766   0.055  11.867 -0.1470 -0.2340 -0.0757
 1239DECAN   C112371   6.223   2.997   5.350 -0.0913  0.6041  0.4671
 1239DECAN   C212372   6.368   2.969   5.393 -0.2405 -0.4673  0.2916
 1239DECAN   C312373   6.395   2.834   5.462  0.7613 -0.3115  0.2161
 1239DECAN   C412374   6.294   2.824   5.578  0.2795 -0.0411 -0.1769
 1239DECAN   C512375   6.152   2.785   5.533  0.4880 -1.1577  0.0876
 1239DECAN   C612376   6.121   2.638   5.499 -0.3314 -1.0201  0.2115
 1239DECAN   C712377   5.990   2.629   5.419 -0.0216 -0.2252 -0.4030
 1239DECAN   C812378   5.963   2.492   5.353 -0.1603 -0.2814 -0.2303
 1239DECAN   C912379   5.830   2.486   5.276  0.1512  0.2214 -0.8211
 1239DECAN  C1012380   5.797   2.373   5.177 -0.4036 -0.1059 -0.2736
 1240DECAN   C112381   3.908   3.486  14.993  0.4653  0.6468  0.2840
 1240DECAN   C212382   3.787   3.522  15.081  0.0562  0.5653 -0.2383
 1240DECAN   C312383   3.656   3.451  15.044  0.3761 -0.1420 -0.0501
 1240DECAN   C412384   3.525   3.518  15.091  0.0856 -0.4951 -0.3434
 1240DECAN   C512385   3.489   3.621  14.982  0.3054 -0.1724 -0.1153
 1240DECAN   C612386   3.343   3.667  14.997  0.4262  0.1954 -0.0647
 1240DECAN   C712387   3.304   3.710  15.140 -0.4035  0.0041 -0.2229
 1240DECAN   C812388   3.228   3.843  15.132  0.5531  0.5213 -0.8691
 1240DECAN   C912389   3.098   3.851  15.051 -0.0086 -0.0366 -0.0387
 1240DECAN  C1012390   3.119   3.886  14.902 -0.1612 -0.4649 -0.1627
 1241DECAN   C112391   5.295   9.501  14.548  0.1675 -0.1889 -0.4292
 1241DECAN   C212392   5.422   9.583  14.518 -0.2931  0.6555 -0.0825
 1241DECAN   C312393   5.475   9.671  14.632  0.1045 -0.3717  0.5263
 1241DECAN   C412394   5.597   9.754  14.588 -0.2611 -0.0190  0.1822
 1241DECAN   C512395   5.668   9.808  14.713 -0.4904 -0.1517  0.3701
 1241DECAN   C612396   5.738   9.701  14.800 -0.5482 -0.0067  0.5965
 1241DECAN   C712397   5.855   9.759  14.882 -0.0939 -0.0614 -0.0029
 1241DECAN   C812398   5.921   9.638  14.952  0.3553 -0.1522 -0.5763
 1241DECAN   C912399   6.064   9.664  15.001  0.1343  0.4127 -0.2295
 1241DECAN  C1012400   6.166   9.625  14.893  0.1357 -0.0309 -0.0708
 1242DECAN   C112401   7.781   6.754   9.666  0.2416  0.3942  0.1379
 1242DECAN   C212402   7.736   6.821   9.798 -0.6900 -0.0436  0.0553
 1242DECAN   C312403   7.752   6.974   9.794 -0.0702 -0.1122 -0.2392
 1242DECAN   C412404   7.900   7.014   9.778 -0.0634 -0.0534 -0.0402
 1242DECAN   C512405   7.933   7.163   9.794  0.1497 -0.1619  0.5325
 1242DECAN   C612406   8.084   7.192   9.781 -0.0317  0.2133 -0.8774
 1242DECAN   C712407   8.109   7.337   9.828 -0.4326 -0.0145  0.0700
 1242DECAN   C812408   8.093   7.358   9.980  0.2150  0.7328  0.0387
 1242DECAN   C912409   8.154   7.251  10.073 -0.5951 -0.0772 -0.3461
 1242DECAN  C1012410   8.113   7.266  10.221  0.6850  0.5616 -0.0397
 1243DECAN   C112411   3.758   5.838   7.840  0.1905  0.4203  0.2183
 1243DECAN   C212412   3.746   5.933   7.720 -0.0259 -0.0308 -0.1219
 1243DECAN   C312413   3.721   6.079   7.763 -0.2192 -0.0121 -0.2925
 1243DECAN   C412414   3.589   6.088   7.842 -0.2248 -0.4247 -0.2525
 1243DECAN   C512415   3.458   6.052   7.770 -0.3133 -0.2188 -0.1945
 1243DECAN   C612416   3.426   6.166   7.671 -0.0363  0.4867  0.5202
 1243DECAN   C712417   3.302   6.150   7.582  0.4668 -0.0433 -0.1026
 1243DECAN   C812418   3.280   6.265   7.482 -0.8664 -0.1813  0.0020
 1243DECAN   C912419   3.263   6.407   7.539 -0.4952 -0.1915  0.1447
 1243DECAN  C1012420   3.253   6.522   7.437 -0.0112 -0.0160  0.2917
 1244DECAN   C112421   4.696   4.480   9.929 -0.3945  0.0552  0.2174
 1244DECAN   C212422   4.685   4.612  10.007 -0.2756  0.0337  0.2727
 1244DECAN   C312423   4.775   4.733   9.976 -0.1773 -0.1447 -0.1383
 1244DECAN   C412424   4.750   4.846  10.077  0.1137 -0.2899  0.0973
 1244DECAN   C512425   4.848   4.964  10.063  0.0284 -0.2495 -0.1613
 1244DECAN   C612426   4.997   4.930  10.041  0.2530  0.3787  0.3684
 1244DECAN   C712427   5.094   5.048  10.020  0.5512  0.1071  0.2188
 1244DECAN   C812428   5.045   5.146   9.913 -0.0539  0.0590  0.4468
 1244DECAN   C912429   5.146   5.249   9.858 -0.0454 -0.1982 -0.0255
 1244DECAN  C1012430   5.087   5.334   9.744  0.0944 -0.0907 -0.0181
 1245DECAN   C112431   9.217   7.173   8.831 -0.1423 -0.0523  0.3723
 1245DECAN   C212432   9.235   7.034   8.767  0.1440 -0.1074  0.5714
 1245DECAN   C312433   9.102   6.977   8.713  0.4379 -0.2817  0.0218
 1245DECAN   C412434   9.115   6.839   8.646 -0.1456 -0.1870 -0.2866
 1245DECAN   C512435   9.225   6.824   8.539 -0.1741 -0.1279 -0.3250
 1245DECAN   C612436   9.199   6.696   8.457  0.6017 -0.7965  0.4439
 1245DECAN   C712437   9.302   6.666   8.347  0.7513  0.1189  0.3247
 1245DECAN   C812438   9.256   6.738   8.219  0.3502 -0.0009  0.3990
 1245DECAN   C912439   9.259   6.891   8.237 -0.2529  0.0405  0.1698
 1245DECAN  C1012440   9.220   6.975   8.114  0.0039  0.2281  0.2159
 1246DECAN   C112441   5.362   6.519   4.363  0.1543 -0.4566 -0.5033
 1246DECAN   C212442   5.241   6.473   4.447  0.0546  0.3771 -0.1789
 1246DECAN   C312443   5.269   6.508   4.594 -0.0114 -0.8470  0.1302
 1246DECAN   C412444   5.376   6.419   4.662  0.0725 -0.8366  0.0112
 1246DECAN   C512445   5.381   6.459   4.810 -0.2845 -0.0672 -0.1759
 1246DECAN   C612446   5.411   6.607   4.836  0.1623 -0.2097  0.1349
 1246DECAN   C712447   5.457   6.621   4.983 -0.4509 -0.0773  0.3222
 1246DECAN   C812448   5.494   6.768   5.007 -0.5277 -0.0099  0.0378
 1246DECAN   C912449   5.629   6.801   4.940 -0.6126  0.1472 -0.0554
 1246DECAN  C1012450   5.721   6.900   5.014 -0.5755  0.1200 -0.0644
 1247DECAN   C112451  10.237   6.760  13.203 -0.0238  0.0590 -0.1090
 1247DECAN   C212452  10.243   6.911  13.174 -0.0896  0.1130  0.1583
 1247DECAN   C312453  10.279   6.939  13.027 -1.1122  0.4516 -0.0426
 1247DECAN   C412454  10.253   7.085  12.987  0.8449  0.8827  0.1652
 1247DECAN   C512455  10.318   7.117  12.851 -0.4281 -0.1166 -0.6939
 1247DECAN   C612456  10.328   7.261  12.797 -0.3495  0.1713  0.0808
 1247DECAN   C712457  10.369   7.260  12.649 -0.1411 -0.0289  0.1396
 1247DECAN   C812458  10.407   7.393  12.581  0.2272 -0.1293  0.1430
 1247DECAN   C912459  10.501   7.384  12.460  0.1928 -0.7304  0.1595
 1247DECAN  C1012460  10.443   7.343  12.323 -0.0821  0.4202 -0.0780
 1248DECAN   C112461   7.121   7.629   4.095  0.4057 -0.1086  0.4209
 1248DECAN   C212462   6.979   7.584   4.135  0.1617 -0.0677 -0.3981
 1248DECAN   C312463   6.941   7.437   4.108 -0.3240  0.1344 -0.8359
 1248DECAN   C412464   6.792   7.400   4.117 -0.1701 -0.2647  0.2022
 1248DECAN   C512465   6.773   7.251   4.085 -0.1190 -0.1586 -0.3407
 1248DECAN   C612466   6.628   7.209   4.058 -0.2013 -0.1984  0.1509
 1248DECAN   C712467   6.609   7.058   4.030  0.1955 -0.1894 -0.1878
 1248DECAN   C812468   6.461   7.015   4.027  0.1285  0.0440 -0.2368
 1248DECAN   C912469   6.446   6.862   4.031  0.1216  0.0484 -0.1028
 1248DECAN  C1012470   6.306   6.799   4.023  0.3135 -0.4704  0.6269
 1249DECAN   C112471   5.927   7.225   4.586 -0.0442  0.4524  0.1840
 1249DECAN   C212472   5.922   7.249   4.738 -0.3726  0.3758  0.1868
 1249DECAN   C312473   5.782   7.245   4.801 -0.4340 -0.6996  0.0017
 1249DECAN   C412474   5.781   7.288   4.948  0.5871 -0.3172 -0.0977
 1249DECAN   C512475   5.861   7.411   4.998 -0.1930 -0.0356  0.4887
 1249DECAN   C612476   5.830   7.452   5.143 -0.5752  0.3672  0.2963
 1249DECAN   C712477   5.898   7.588   5.169 -0.6279  0.3992  0.2657
 1249DECAN   C812478   6.047   7.598   5.205 -0.4952  0.1132 -0.1941
 1249DECAN   C912479   6.091   7.715   5.294 -0.2724 -0.3536  0.3111
 1249DECAN  C1012480   6.239   7.722   5.334 -0.2360 -0.0135  0.1201
 1250DECAN   C112481   2.106   7.070  10.036 -0.1590 -0.3707 -0.0145
 1250DECAN   C212482   2.182   6.988  10.142  0.0561  0.2651  0.3316
 1250DECAN   C312483   2.334   6.995  10.119  0.0920  0.4119  0.6099
 1250DECAN   C412484   2.394   7.133  10.149  0.6116  0.1079  0.9962
 1250DECAN   C512485   2.346   7.170  10.291 -0.4054 -0.4718  0.8125
 1250DECAN   C612486   2.394   7.308  10.339 -0.1510 -0.0877 -0.5124
 1250DECAN   C712487   2.294   7.416  10.293  0.4743  0.5632 -0.3533
 1250DECAN   C812488   2.264   7.420  10.142 -0.2638  0.1497 -0.2207
 1250DECAN   C912489   2.188   7.550  10.109  0.1187  0.5122  0.2957
 1250DECAN  C1012490   2.108   7.552   9.977 -0.1606 -0.2183  0.4480
 1251DECAN   C112491   2.178   7.971   9.861  0.6531 -0.1489 -0.4129
 1251DECAN   C212492   2.239   8.096   9.927 -0.2759  0.1511 -0.1118
 1251DECAN   C312493   2.154   8.120  10.054 -0.1089 -0.2913  0.0890
 1251DECAN   C412494   2.118   7.992  10.131  0.1105 -0.1045  0.5007
 1251DECAN   C512495   2.068   8.015  10.275 -0.1437 -0.0489  0.4039
 1251DECAN   C612496   2.167   8.085  10.370 -0.0847  0.6712 -0.1805
 1251DECAN   C712497   2.163   8.237  10.348 -0.4748  0.7067  0.1388
 1251DECAN   C812498   2.283   8.303  10.419  0.2632 -0.2696 -0.1786
 1251DECAN   C912499   2.417   8.276  10.348  0.2060 -0.1094 -0.3486
 1251DECAN  C1012500   2.547   8.328  10.412  0.0060  0.1514 -0.1487
 1252DECAN   C112501   5.287   0.883  10.711 -0.8068  0.0909 -0.9988
 1252DECAN   C212502   5.430   0.827  10.709 -0.6336  0.4868  0.0677
 1252DECAN   C312503   5.477   0.779  10.571  0.3698 -0.1310  0.6081
 1252DECAN   C412504   5.431   0.650  10.502 -0.0551  0.3974 -0.1187
 1252DECAN   C512505   5.483   0.621  10.360 -0.0299  0.2904 -0.0879
 1252DECAN   C612506   5.393   0.526  10.279  0.2565  0.3245 -0.4479
 1252DECAN   C712507   5.437   0.516  10.131 -0.4803 -0.3077 -0.6327
 1252DECAN   C812508   5.348   0.423  10.047 -0.4016 -0.8731 -0.0956
 1252DECAN   C912509   5.379   0.443   9.898 -0.0179 -0.6210  0.0183
 1252DECAN  C1012510   5.279   0.383   9.798 -0.0673 -0.4233 -0.0535
 1253DECAN   C112511   5.460   1.067  11.226 -0.0850  0.2781 -0.4494
 1253DECAN   C212512   5.533   1.114  11.353 -0.2899 -0.3184 -0.1031
 1253DECAN   C312513   5.507   1.262  11.387  0.2940 -0.0650 -0.7556
 1253DECAN   C412514   5.357   1.289  11.367  0.3188  0.2974 -0.4744
 1253DECAN   C512515   5.300   1.429  11.394 -0.2640 -0.0193 -0.0464
 1253DECAN   C612516   5.160   1.432  11.330 -0.1183  0.5946 -0.3387
 1253DECAN   C712517   5.093   1.569  11.352 -0.7896  0.1877  0.2020
 1253DECAN   C812518   4.947   1.569  11.305 -0.6777  0.0692 -0.1464
 1253DECAN   C912519   4.879   1.707  11.311 -0.4635  0.1598  0.2348
 1253DECAN  C1012520   4.878   1.793  11.439  0.1460  0.1002  0.2830
 1254DECAN   C112521   4.644   6.631  12.425  0.1085  0.3706 -0.8301
 1254DECAN   C212522   4.592   6.765  12.481  0.2785 -0.0516  0.3510
 1254DECAN   C312523   4.501   6.775  12.605 -0.2388  0.4203 -0.0660
 1254DECAN   C412524   4.438   6.912  12.639  0.0349  0.4624  0.2775
 1254DECAN   C512525   4.314   6.899  12.729  0.2653  0.0414  0.5403
 1254DECAN   C612526   4.229   7.026  12.748  0.1267  0.0112  0.1449
 1254DECAN   C712527   4.310   7.145  12.804 -0.2689  0.2622  0.1984
 1254DECAN   C812528   4.414   7.203  12.705 -0.0672 -0.1064  0.1894
 1254DECAN   C912529   4.440   7.353  12.729  0.5728 -0.2507  0.4246
 1254DECAN  C1012530   4.578   7.380  12.667  0.3199  0.2330  0.0629
 1255DECAN   C112531  10.514   8.937   8.743 -0.1373 -0.0886  0.2523
 1255DECAN   C212532  10.434   8.813   8.701  0.1275 -0.1524 -0.0638
 1255DECAN   C312533  10.525   8.696   8.656  0.1456  0.1296 -0.7691
 1255DECAN   C412534  10.450   8.573   8.602 -0.0750 -0.2923  0.4594
 1255DECAN   C512535  10.400   8.487   8.719 -0.7515 -0.1044  0.3159
 1255DECAN   C612536  10.332   8.352   8.686 -0.0642 -0.3483 -0.1360
 1255DECAN   C712537  10.433   8.243   8.648  0.7163  0.1438  0.4980
 1255DECAN   C812538  10.383   8.116   8.576 -0.2540  0.4805  0.5615
 1255DECAN   C912539  10.491   8.009   8.549 -0.4462  0.4442 -0.0760
 1255DECAN  C1012540  10.439   7.881   8.483 -0.1129 -0.1724  0.8343
 1256DECAN   C112541   3.192   5.405  13.877  0.3830  0.3813 -0.1414
 1256DECAN   C212542   3.257   5.439  13.741  0.7144  0.5709  0.0621
 1256DECAN   C312543   3.193   5.572  13.696 -0.1119 -0.1325 -0.8973
 1256DECAN   C412544   3.277   5.638  13.585  0.2443  0.2100 -0.4292
 1256DECAN   C512545   3.212   5.767  13.530  0.3345  0.6791  0.5269
 1256DECAN   C612546   3.251   5.830  13.395  0.2216 -0.2959  0.0261
 1256DECAN   C712547   3.239   5.744  13.267 -0.1512 -0.0103 -0.1331
 1256DECAN   C812548   3.292   5.811  13.139 -0.1159 -0.0576 -0.1428
 1256DECAN   C912549   3.281   5.718  13.018 -0.0925 -0.3017  0.0426
 1256DECAN  C1012550   3.316   5.797  12.890  0.1556 -0.1069  0.2300
 1257DECAN   C112551   9.938   5.690   8.227 -0.4913  0.4240  0.3424
 1257DECAN   C212552  10.064   5.726   8.308 -0.2144 -0.3123  0.2450
 1257DECAN   C312553  10.092   5.876   8.326  0.1656 -0.3314 -0.1498
 1257DECAN   C412554  10.102   5.944   8.189  0.9208  0.4095  0.2645
 1257DECAN   C512555  10.080   6.096   8.196  0.0383  0.2757  0.4280
 1257DECAN   C612556  10.174   6.187   8.278  0.1105  0.2295  0.3955
 1257DECAN   C712557  10.319   6.187   8.228  0.0536  0.3791  0.2294
 1257DECAN   C812558  10.362   6.206   8.081 -0.1425 -0.0628  0.1134
 1257DECAN   C912559  10.513   6.176   8.075 -0.1172  0.1448 -0.3203
 1257DECAN  C1012560  10.558   6.065   8.171  0.0878  0.0666 -0.5061
 1258DECAN   C112561   5.835   7.242   9.292 -0.1928 -0.4416 -0.0110
 1258DECAN   C212562   5.973   7.247   9.224 -0.0108  0.1698  0.3916
 1258DECAN   C312563   6.060   7.138   9.289 -0.9074 -0.8382 -0.0796
 1258DECAN   C412564   6.051   7.125   9.442  0.1427 -0.4707  0.0238
 1258DECAN   C512565   6.124   7.234   9.522 -0.4883 -0.1719  0.2028
 1258DECAN   C612566   6.118   7.229   9.676 -0.4083 -0.4163  0.1976
 1258DECAN   C712567   6.170   7.355   9.747 -0.5151 -0.0750 -0.3224
 1258DECAN   C812568   6.309   7.403   9.704 -0.4226  0.1527  0.2247
 1258DECAN   C912569   6.335   7.543   9.764  0.3191  0.2585 -0.3303
 1258DECAN  C1012570   6.395   7.555   9.906 -0.5724  0.0423  0.0677
 1259DECAN   C112571   7.834   2.298   9.431  0.7395 -0.3243  0.4270
 1259DECAN   C212572   7.883   2.417   9.346  0.6670 -0.7579 -0.2205
 1259DECAN   C312573   7.848   2.406   9.196 -0.4656  0.0076 -0.0245
 1259DECAN   C412574   7.698   2.402   9.163 -0.4799 -0.0592  0.0463
 1259DECAN   C512575   7.618   2.523   9.216 -0.2021 -0.1036  0.5702
 1259DECAN   C612576   7.465   2.516   9.202 -0.1157  0.2564 -0.6702
 1259DECAN   C712577   7.398   2.647   9.247  0.0440  0.2504 -0.4140
 1259DECAN   C812578   7.249   2.624   9.280  0.2083 -0.1109  0.1007
 1259DECAN   C912579   7.172   2.747   9.333 -0.0238 -0.1760 -0.0851
 1259DECAN  C1012580   7.023   2.718   9.360  0.0571 -0.7597 -0.2489
 1260DECAN   C112581   6.925  10.704   8.234  0.1886  0.1843 -0.0676
 1260DECAN   C212582   6.792  10.627   8.234  0.3995 -0.1809 -0.3955
 1260DECAN   C312583   6.825  10.476   8.224 -0.0226 -0.3107  0.1217
 1260DECAN   C412584   6.910  10.451   8.098  0.0397 -0.3598  0.1744
 1260DECAN   C512585   7.047  10.519   8.118 -0.2488  0.3060 -0.0757
 1260DECAN   C612586   7.127  10.514   7.986 -0.0380 -0.5679  0.0749
 1260DECAN   C712587   7.153  10.373   7.931  0.0258 -0.5374  0.0256
 1260DECAN   C812588   7.268  10.367   7.828  0.0535  0.4077 -0.0018
 1260DECAN   C912589   7.272  10.235   7.750 -0.1009  0.1862  0.3648
 1260DECAN  C1012590   7.298  10.117   7.846  0.5363  0.4347  0.5017
 1261DECAN   C112591   9.469   5.654   9.206 -0.0060 -0.0239  0.2942
 1261DECAN   C212592   9.468   5.605   9.060 -0.4278 -0.7330  0.5288
 1261DECAN   C312593   9.588   5.523   9.010  0.1244  0.3460  0.0584
 1261DECAN   C412594   9.600   5.524   8.856 -0.6745 -0.2435 -0.0087
 1261DECAN   C512595   9.733   5.483   8.791 -0.4576  0.0454  0.2475
 1261DECAN   C612596   9.717   5.473   8.638  0.1720 -0.3253  0.2032
 1261DECAN   C712597   9.820   5.381   8.569  0.1531 -0.3731  0.2385
 1261DECAN   C812598   9.789   5.329   8.428 -0.2581  0.1108  0.1485
 1261DECAN   C912599   9.911   5.251   8.375 -0.3475  0.1128 -0.0643
 1261DECAN  C1012600   9.943   5.116   8.440 -0.0934  0.0380 -0.3406
 1262DECAN   C112601   2.885   5.910  12.789 -0.1391  0.6095 -0.6022
 1262DECAN   C212602   2.954   5.992  12.900  0.2450 -0.1198 -0.2919
 1262DECAN   C312603   3.051   6.099  12.847 -0.0520  0.2348 -0.1259
 1262DECAN   C412604   3.125   6.190  12.946  0.1293 -0.1250  0.0711
 1262DECAN   C512605   3.194   6.308  12.876 -0.7545  0.2478 -0.1897
 1262DECAN   C612606   3.272   6.401  12.972 -0.1758 -0.3573 -0.0654
 1262DECAN   C712607   3.341   6.512  12.892  0.1635 -0.5229 -0.0029
 1262DECAN   C812608   3.314   6.653  12.948 -0.4162 -0.1935 -1.0920
 1262DECAN   C912609   3.166   6.697  12.950 -0.4039 -0.1838 -0.3386
 1262DECAN  C1012610   3.136   6.837  13.007 -0.2509 -0.4753  0.4749
 1263DECAN   C112611   6.885   9.999   9.500  0.2792  0.2786  0.8587
 1263DECAN   C212612   6.783   9.964   9.610 -0.4258  0.2194  0.1977
 1263DECAN   C312613   6.838   9.906   9.742  0.4924  0.6410  0.0080
 1263DECAN   C412614   6.928   9.997   9.827  0.6680  0.5446 -0.0737
 1263DECAN   C512615   6.966   9.937   9.964 -0.5017  0.1304  0.0847
 1263DECAN   C612616   6.858   9.853  10.034 -0.1484 -0.2160  0.2232
 1263DECAN   C712617   6.901   9.787  10.166  0.2014 -0.5433 -0.0525
 1263DECAN   C812618   6.801   9.695  10.240  0.0281 -0.5444 -0.2869
 1263DECAN   C912619   6.860   9.625  10.363 -0.0918 -0.5559 -0.2362
 1263DECAN  C1012620   6.911   9.712  10.480  0.0425 -0.4921 -0.3436
 1264DECAN   C112621   4.068   6.374   6.396  0.5264 -0.0287  0.5187
 1264DECAN   C212622   4.029   6.279   6.282 -0.2052  0.6744  0.1764
 1264DECAN   C312623   3.967   6.343   6.156  0.0314  0.5294 -0.0138
 1264DECAN   C412624   3.894   6.248   6.060  0.4082 -0.0665  0.2831
 1264DECAN   C512625   3.836   6.322   5.937 -0.3172 -0.4840  0.3627
 1264DECAN   C612626   3.760   6.237   5.834 -0.6007  0.7577 -0.4819
 1264DECAN   C712627   3.639   6.159   5.890  0.1948 -0.2661 -0.1526
 1264DECAN   C812628   3.674   6.084   6.020 -0.7528 -0.1522  0.1750
 1264DECAN   C912629   3.559   6.005   6.086 -0.7108 -0.4849 -0.1467
 1264DECAN  C1012630   3.603   5.945   6.221 -0.1595 -0.3050 -0.2439
 1265DECAN   C112631   8.755   9.118  11.266 -0.3315  0.4434 -0.1690
 1265DECAN   C212632   8.729   9.257  11.329 -0.3158  0.2039  0.3731
 1265DECAN   C312633   8.713   9.369  11.225  0.5788  0.4238  0.4678
 1265DECAN   C412634   8.689   9.515  11.269 -0.1341  0.5206 -0.2163
 1265DECAN   C512635   8.680   9.598  11.140  0.9952  0.1551 -0.5474
 1265DECAN   C612636   8.594   9.509  11.047 -0.0138  0.2881  0.2353
 1265DECAN   C712637   8.597   9.530  10.895  0.1997  0.0352  0.2047
 1265DECAN   C812638   8.498   9.441  10.817  0.0710  0.4015 -0.0552
 1265DECAN   C912639   8.492   9.479  10.668  0.0458 -0.1500 -0.1954
 1265DECAN  C1012640   8.399   9.398  10.576  0.2525 -0.3229 -0.2537
 1266DECAN   C112641   2.898   6.418   7.721 -0.5409 -0.1571 -0.4426
 1266DECAN   C212642   2.923   6.268   7.749  0.2851 -0.1421 -1.0646
 1266DECAN   C312643   2.795   6.188   7.721 -0.2699  0.4189 -0.1657
 1266DECAN   C412644   2.671   6.210   7.811 -0.7142  0.1560 -0.7056
 1266DECAN   C512645   2.564   6.103   7.786 -0.6119 -0.1683  0.1952
 1266DECAN   C612646   2.626   5.964   7.762 -0.2020  0.1329 -0.5129
 1266DECAN   C712647   2.519   5.853   7.765  0.2896 -0.3360 -0.2713
 1266DECAN   C812648   2.449   5.845   7.902  0.6433 -0.3569 -0.0895
 1266DECAN   C912649   2.339   5.742   7.933 -0.1176  0.4364 -0.1248
 1266DECAN  C1012650   2.397   5.602   7.904  0.1580  0.4122  0.5261
 1267DECAN   C112651   8.830   4.825  12.298  0.2308 -0.2693 -0.1040
 1267DECAN   C212652   8.935   4.713  12.283  0.4784 -0.0241 -0.2178
 1267DECAN   C312653   8.903   4.622  12.164 -0.2472  0.0622 -0.0970
 1267DECAN   C412654   9.019   4.524  12.133  0.4267  0.7994  0.0519
 1267DECAN   C512655   8.992   4.448  12.002 -0.1182  0.2710  0.4634
 1267DECAN   C612656   8.852   4.386  11.983  0.2867 -0.8245  0.9882
 1267DECAN   C712657   8.743   4.494  11.980  0.6198 -0.4992  0.3016
 1267DECAN   C812658   8.597   4.444  11.978  0.3928  0.1605  0.0624
 1267DECAN   C912659   8.493   4.551  12.014 -0.1194 -0.2256 -0.2514
 1267DECAN  C1012660   8.515   4.612  12.154 -0.2110 -0.6186 -0.0638
 1268DECAN   C112661   8.450  10.855   8.855 -0.6436 -0.2489 -0.3436
 1268DECAN   C212662   8.318  10.935   8.853 -0.3324  0.2951  0.4180
 1268DECAN   C312663   8.255  10.982   8.721 -0.1983  0.4582  0.4111
 1268DECAN   C412664   8.249  10.866   8.619 -0.1788  0.5003  0.3614
 1268DECAN   C512665   8.208  10.918   8.480  0.1679  0.4188  0.2283
 1268DECAN   C612666   8.314  11.021   8.436  0.1957  0.2901 -0.0076
 1268DECAN   C712667   8.285  11.082   8.297 -0.4275  0.3018  0.1234
 1268DECAN   C812668   8.401  11.166   8.240 -0.1125 -0.1524  0.0846
 1268DECAN   C912669   8.386  11.195   8.089  0.0097  0.2066  0.1411
 1268DECAN  C1012670   8.494   0.049   8.038 -0.1558  0.0263 -0.5608
 1269DECAN   C112671   8.093   0.921   8.711 -0.1006  0.3184 -0.3567
 1269DECAN   C212672   8.110   1.057   8.782 -0.1718  0.2248 -0.1620
 1269DECAN   C312673   8.237   1.079   8.867 -0.2998  0.4877 -0.0368
 1269DECAN   C412674   8.250   1.230   8.896  0.0582  0.3497  0.5277
 1269DECAN   C512675   8.251   1.318   8.770  0.1540  0.1626  0.3964
 1269DECAN   C612676   8.280   1.468   8.789  0.1912  0.1782  0.2181
 1269DECAN   C712677   8.185   1.539   8.887  0.2107 -0.1735  0.4932
 1269DECAN   C812678   8.217   1.689   8.873 -0.6767 -0.0022  0.2252
 1269DECAN   C912679   8.228   1.741   8.729 -0.1204  0.2975  0.3732
 1269DECAN  C1012680   8.094   1.726   8.654 -0.0920  0.4090  0.2991
 1270DECAN   C112681   0.920   2.269   9.394 -0.0382  0.3487 -0.0419
 1270DECAN   C212682   0.856   2.190   9.510 -0.1069  0.0092 -0.3103
 1270DECAN   C312683   0.903   2.244   9.647 -0.1662  0.1224 -0.3351
 1270DECAN   C412684   0.889   2.148   9.767  0.3302 -0.0505 -0.4127
 1270DECAN   C512685   1.004   2.047   9.787  0.2755 -0.0954 -0.3262
 1270DECAN   C612686   0.996   1.983   9.927 -0.2607  0.1290 -0.2519
 1270DECAN   C712687   0.883   1.884   9.961 -0.1994  0.1968  0.1501
 1270DECAN   C812688   0.895   1.812  10.096  0.1905 -0.5010 -0.2541
 1270DECAN   C912689   0.886   1.902  10.221  0.3369 -0.3534 -0.3489
 1270DECAN  C1012690   0.886   1.829  10.356 -0.2365 -0.3591 -0.3486
 1271DECAN   C112691   5.305   9.012  12.954 -0.1471  0.0332  0.4934
 1271DECAN   C212692   5.302   9.164  12.979  0.6393  0.1205  0.1058
 1271DECAN   C312693   5.350   9.242  12.855 -0.1297 -0.0042 -0.2811
 1271DECAN   C412694   5.362   9.393  12.883  0.0129 -0.1076  0.2251
 1271DECAN   C512695   5.424   9.460  12.759  0.2529 -0.0811  0.3562
 1271DECAN   C612696   5.411   9.613  12.755 -1.0422 -0.1848 -0.1335
 1271DECAN   C712697   5.445   9.684  12.622 -0.4748  0.0707  0.1419
 1271DECAN   C812698   5.386   9.826  12.619  0.6654  0.5527  0.1089
 1271DECAN   C912699   5.432   9.914  12.501  0.1855 -0.2174 -0.6695
 1271DECAN  C1012700   5.403   9.844  12.367 -0.0076 -0.2745 -0.5975
 1272DECAN   C112701  10.944   0.881   9.082  0.6155 -0.0386 -0.3950
 1272DECAN   C212702  10.827   0.836   8.992  0.1860  0.2422  0.0163
 1272DECAN   C312703  10.841   0.881   8.845 -0.2246 -0.1100 -0.1317
 1272DECAN   C412704  10.717   0.847   8.760 -0.4482  0.1616  0.0824
 1272DECAN   C512705  10.727   0.891   8.613 -0.2936 -0.3899 -0.0741
 1272DECAN   C612706  10.602   0.840   8.538 -0.1737 -0.7093 -0.0567
 1272DECAN   C712707  10.602   0.885   8.390 -0.0113 -0.1888  0.0983
 1272DECAN   C812708  10.458   0.874   8.337  0.1452  0.2760 -0.4353
 1272DECAN   C912709  10.423   0.724   8.321 -0.1210  0.3093 -0.1747
 1272DECAN  C1012710  10.463   0.644   8.445  0.0401  0.5854 -0.0470
 1273DECAN   C112711   8.364   4.470  12.803  0.1334 -0.1790 -0.1551
 1273DECAN   C212712   8.457   4.349  12.788 -0.0006 -0.3754  0.5458
 1273DECAN   C312713   8.416   4.236  12.691  0.1611  0.7249 -0.8326
 1273DECAN   C412714   8.502   4.110  12.708 -0.2173  0.5207 -0.4201
 1273DECAN   C512715   8.523   4.031  12.578  0.5052  0.4073 -0.2446
 1273DECAN   C612716   8.621   3.914  12.591 -0.5824 -0.4831  0.1337
 1273DECAN   C712717   8.642   3.839  12.458 -0.1528 -0.1223 -0.0047
 1273DECAN   C812718   8.532   3.741  12.414  0.0016 -0.1899 -0.2436
 1273DECAN   C912719   8.545   3.680  12.273  0.7335 -0.2860 -0.1371
 1273DECAN  C1012720   8.412   3.617  12.227  0.6287 -0.1699  0.0061
 1274DECAN   C112721   9.238   2.813   9.377 -0.1727  0.4051  0.0318
 1274DECAN   C212722   9.339   2.714   9.317 -0.0153  0.4012  0.3016
 1274DECAN   C312723   9.468   2.708   9.400  0.2985  0.6057 -0.1684
 1274DECAN   C412724   9.590   2.627   9.350  0.2336  0.4312 -0.0432
 1274DECAN   C512725   9.719   2.661   9.426  0.2483  0.4040 -0.0556
 1274DECAN   C612726   9.696   2.665   9.579  0.2191  0.4969 -0.0633
 1274DECAN   C712727   9.815   2.736   9.646  0.2091  0.2979  0.1646
 1274DECAN   C812728   9.801   2.758   9.797  0.2327 -0.4269  0.2757
 1274DECAN   C912729   9.752   2.626   9.861 -0.1385 -0.4583 -0.0746
 1274DECAN  C1012730   9.716   2.625  10.010 -0.2156  0.2636 -0.0833
 1275DECAN   C112731   2.356  11.080   6.401 -0.1585 -0.0830 -0.0949
 1275DECAN   C212732   2.454  11.149   6.304 -0.2687  0.0734 -0.0945
 1275DECAN   C312733   2.463  11.106   6.157  0.0418 -0.4981  0.0894
 1275DECAN   C412734   2.558  11.178   6.059 -0.0483 -0.5053 -0.0035
 1275DECAN   C512735   2.494   0.069   6.021  0.2093 -0.3624  0.0690
 1275DECAN   C612736   2.591   0.156   5.940 -0.5193  0.3558 -0.0401
 1275DECAN   C712737   2.546   0.299   5.903 -0.1930  0.3728 -0.3729
 1275DECAN   C812738   2.413   0.313   5.828 -0.5492 -0.8423  0.0126
 1275DECAN   C912739   2.384   0.457   5.783  0.1057 -0.6093  0.3235
 1275DECAN  C1012740   2.476   0.508   5.671 -0.7139  0.8729  0.2837
 1276DECAN   C112741   2.982   4.387  12.316 -0.0110 -0.3461 -0.0571
 1276DECAN   C212742   2.857   4.450  12.250  0.1542  0.1068  0.0576
 1276DECAN   C312743   2.815   4.594  12.283 -0.1520  0.0043  0.1126
 1276DECAN   C412744   2.674   4.627  12.231  0.0099 -0.2473 -0.4922
 1276DECAN   C512745   2.641   4.776  12.256 -0.3941 -0.3389 -0.4685
 1276DECAN   C612746   2.492   4.810  12.243 -0.4295 -0.4586 -0.3807
 1276DECAN   C712747   2.396   4.737  12.340 -0.2710 -0.9441 -0.5823
 1276DECAN   C812748   2.252   4.777  12.304 -0.0434  0.3949 -0.0715
 1276DECAN   C912749   2.146   4.685  12.366  0.3888  0.0665  0.1855
 1276DECAN  C1012750   2.006   4.729  12.319  0.4262 -0.1369 -0.1170
 1277DECAN   C112751   6.077   0.704  14.552 -0.0736 -0.1329 -0.8480
 1277DECAN   C212752   6.096   0.609  14.432  0.1047 -0.3096 -0.6785
 1277DECAN   C312753   6.000   0.648  14.318 -0.3551 -0.2955 -0.2869
 1277DECAN   C412754   5.986   0.540  14.210 -0.9365 -0.4404 -0.0725
 1277DECAN   C512755   5.884   0.561  14.096 -0.3282 -0.0431 -0.5523
 1277DECAN   C612756   5.733   0.570  14.125 -0.2658 -0.0707 -0.2032
 1277DECAN   C712757   5.655   0.627  14.004 -0.2581  0.1774 -0.0916
 1277DECAN   C812758   5.671   0.779  13.985 -0.2348  0.2135  0.2044
 1277DECAN   C912759   5.558   0.825  13.891  0.1441 -0.8331 -0.7931
 1277DECAN  C1012760   5.569   0.975  13.856  0.3768 -0.5457  0.4786
 1278DECAN   C112761   2.050   1.328   8.243  0.6080 -0.4783  0.6323
 1278DECAN   C212762   1.954   1.207   8.251 -0.7143  0.4847 -0.2912
 1278DECAN   C312763   1.957   1.125   8.121  0.5343 -0.2750  0.1914
 1278DECAN   C412764   1.921   1.206   7.995 -0.1663 -0.4104  0.2979
 1278DECAN   C512765   1.787   1.281   7.987  0.1476  0.1311  0.0242
 1278DECAN   C612766   1.674   1.184   7.948  0.1899  0.1968 -0.2583
 1278DECAN   C712767   1.534   1.241   7.977  0.2972  0.0336  0.5903
 1278DECAN   C812768   1.422   1.153   7.920  0.3348  0.0661  0.4656
 1278DECAN   C912769   1.452   1.110   7.775 -0.8554  0.4844  0.0785
 1278DECAN  C1012770   1.368   0.991   7.726 -0.6519  0.3869 -0.0323
 1279DECAN   C112771   7.883   2.159  11.063 -0.0841 -0.3263  0.2820
 1279DECAN   C212772   7.765   2.166  11.161 -0.3589  0.5875 -0.1050
 1279DECAN   C312773   7.716   2.032  11.218 -0.0080  0.6230  0.2828
 1279DECAN   C412774   7.803   1.964  11.325  0.1862  0.0727 -0.2157
 1279DECAN   C512775   7.744   1.828  11.366 -0.1569  0.2812 -0.0156
 1279DECAN   C612776   7.749   1.734  11.244 -0.1265  0.3263 -0.0487
 1279DECAN   C712777   7.747   1.584  11.278  0.2975  0.3388  0.0355
 1279DECAN   C812778   7.786   1.493  11.160  0.0177  0.3927 -0.0964
 1279DECAN   C912779   7.780   1.343  11.195 -0.2970  0.2707 -0.6628
 1279DECAN  C1012780   7.831   1.252  11.081  0.6776  0.0234 -0.0358
 1280DECAN   C112781   2.388   1.092   7.400 -0.7967  0.2328  0.0360
 1280DECAN   C212782   2.512   1.036   7.473 -0.9338 -0.4423 -0.2346
 1280DECAN   C312783   2.507   1.033   7.627  0.5024  0.0106 -0.1616
 1280DECAN   C412784   2.461   1.162   7.696 -0.1941 -0.2713 -0.0849
 1280DECAN   C512785   2.316   1.197   7.658 -0.1053  0.2857  0.0784
 1280DECAN   C612786   2.265   1.334   7.706 -0.1217  0.2045  0.2907
 1280DECAN   C712787   2.289   1.347   7.858  0.4796  0.1479  0.2037
 1280DECAN   C812788   2.252   1.488   7.909 -0.2458  0.1209 -0.2270
 1280DECAN   C912789   2.261   1.495   8.063 -0.0523  0.0873 -0.2369
 1280DECAN  C1012790   2.242   1.637   8.121 -0.1335  0.0353 -0.1370
 1281DECAN   C112791   6.577   4.581   4.829  0.2085  0.1605  0.4193
 1281DECAN   C212792   6.557   4.529   4.685 -0.3353  0.2176  0.4755
 1281DECAN   C312793   6.518   4.636   4.581 -0.0589 -0.1239  0.0190
 1281DECAN   C412794   6.485   4.574   4.444  0.4756 -0.2282 -0.0661
 1281DECAN   C512795   6.607   4.485   4.413 -0.1215 -1.3205  0.6469
 1281DECAN   C612796   6.573   4.398   4.291 -0.1605 -0.1040 -0.2302
 1281DECAN   C712797   6.705   4.360   4.221 -0.1028  0.2553 -0.3177
 1281DECAN   C812798   6.680   4.261   4.105  0.2047 -0.3790  0.1539
 1281DECAN   C912799   6.801   4.195   4.036 -0.1055 -0.6333 -0.1497
 1281DECAN  C1012800   6.788   4.092   3.922 -0.0968  0.0189 -0.7503
 1282DECAN   C112801   4.722   9.502  14.010 -0.5290 -0.2566  0.6626
 1282DECAN   C212802   4.776   9.359  14.032  0.8385  0.2128  0.3802
 1282DECAN   C312803   4.825   9.353  14.178  0.4239 -0.2351  0.4987
 1282DECAN   C412804   4.897   9.219  14.206  0.7572 -0.2363 -0.3482
 1282DECAN   C512805   4.945   9.209  14.352 -0.1970  0.2723  0.0098
 1282DECAN   C612806   5.049   9.098  14.371 -0.8590 -0.3062  0.3003
 1282DECAN   C712807   5.000   8.953  14.357 -0.1309 -0.4713 -0.7190
 1282DECAN   C812808   5.082   8.844  14.429  0.1061  0.1456 -0.0476
 1282DECAN   C912809   5.029   8.702  14.400 -0.2109  0.2993 -0.2305
 1282DECAN  C1012810   5.068   8.615  14.521  0.2283  0.8555  0.0340
 1283DECAN   C112811   5.985   3.121  13.278  0.0700  0.0459 -0.3500
 1283DECAN   C212812   6.010   3.087  13.426  0.2865  0.0347 -0.3886
 1283DECAN   C312813   5.930   2.967  13.479 -0.1515  0.6952  0.4717
 1283DECAN   C412814   5.945   2.947  13.631  0.0465  0.2460  0.3951
 1283DECAN   C512815   5.889   3.077  13.692 -0.4093  0.4108 -0.3647
 1283DECAN   C612816   5.991   3.193  13.685  0.1552 -0.0411  0.2763
 1283DECAN   C712817   5.916   3.327  13.693 -0.1934 -0.2172 -0.0155
 1283DECAN   C812818   5.990   3.443  13.625  0.3120 -0.4166  0.1878
 1283DECAN   C912819   5.928   3.584  13.637  0.3066 -0.3628 -0.4209
 1283DECAN  C1012820   6.000   3.687  13.548 -0.4270 -0.0292 -0.6386
 1284DECAN   C112821   9.159   7.320   9.414  0.0443  0.4004 -0.0774
 1284DECAN   C212822   9.152   7.465   9.363  0.1429  0.5554  0.3452
 1284DECAN   C312823   9.065   7.495   9.240  0.6514  0.1617 -0.1146
 1284DECAN   C412824   9.051   7.644   9.201  0.5320  0.1303 -0.1939
 1284DECAN   C512825   9.029   7.657   9.050  0.2419 -0.4972 -0.2106
 1284DECAN   C612826   9.147   7.632   8.954  0.9763  0.2196  0.4933
 1284DECAN   C712827   9.122   7.673   8.807  0.1522  0.1432  0.6105
 1284DECAN   C812828   9.100   7.825   8.799 -0.3748  0.0821  0.8208
 1284DECAN   C912829   8.954   7.872   8.813 -0.5901 -0.2596 -0.1895
 1284DECAN  C1012830   8.944   8.025   8.800  0.3157 -0.1204  0.5865
 1285DECAN   C112831   5.903   6.701   6.796  0.2585 -0.4777  0.2452
 1285DECAN   C212832   6.044   6.745   6.753  0.2598  0.2771  0.9744
 1285DECAN   C312833   6.164   6.660   6.801  0.5129  0.1778  0.1894
 1285DECAN   C412834   6.180   6.527   6.725 -0.3192  0.1174  0.1105
 1285DECAN   C512835   6.287   6.429   6.774  0.0508  0.3954 -0.1427
 1285DECAN   C612836   6.245   6.387   6.916 -0.4558  0.2651 -0.3298
 1285DECAN   C712837   6.119   6.298   6.917 -0.2112 -0.0807  0.1447
 1285DECAN   C812838   6.085   6.247   7.058 -0.4730 -0.5716 -0.0955
 1285DECAN   C912839   6.027   6.364   7.140  0.3741 -0.4054  0.2699
 1285DECAN  C1012840   5.965   6.319   7.274 -0.2815 -0.4791 -0.0554
 1286DECAN   C112841   5.109   0.834   9.095  0.1859  0.0856  0.4816
 1286DECAN   C212842   5.104   0.963   9.010 -0.4024 -0.2244  0.0339
 1286DECAN   C312843   5.236   1.021   8.955 -0.1971  0.0253  0.7732
 1286DECAN   C412844   5.237   1.171   8.920  0.4072 -0.0186  0.5898
 1286DECAN   C512845   5.352   1.210   8.825 -0.2300  0.3424 -0.0516
 1286DECAN   C612846   5.484   1.166   8.891 -0.3505 -0.2783 -0.2179
 1286DECAN   C712847   5.603   1.246   8.836 -0.0288 -0.5720  0.0447
 1286DECAN   C812848   5.668   1.177   8.715 -0.1058 -0.0142 -0.3215
 1286DECAN   C912849   5.796   1.235   8.653  0.1975 -0.3624 -0.0243
 1286DECAN  C1012850   5.853   1.166   8.527  0.2966 -0.3149 -0.0063
 1287DECAN   C112851   7.106   4.503   8.960 -0.6135  0.0502  0.3635
 1287DECAN   C212852   7.118   4.349   8.962 -0.2390  0.0698 -0.1506
 1287DECAN   C312853   7.255   4.302   8.912 -0.1732 -0.2542  0.3316
 1287DECAN   C412854   7.265   4.148   8.909 -0.1849 -0.2502  0.0481
 1287DECAN   C512855   7.166   4.075   8.816 -0.0420 -0.3416 -0.0331
 1287DECAN   C612856   7.185   4.070   8.663 -0.1239  0.5543 -0.0787
 1287DECAN   C712857   7.247   3.943   8.602  0.7053  0.7343  0.3714
 1287DECAN   C812858   7.285   3.948   8.453  0.6710 -0.0360  0.3336
 1287DECAN   C912859   7.331   3.811   8.400  0.3119 -0.0483  0.0486
 1287DECAN  C1012860   7.215   3.710   8.412  0.2499  0.0822  0.5920
 1288DECAN   C112861   2.926   6.264  12.353  0.5132  0.6062  0.2659
 1288DECAN   C212862   2.908   6.238  12.504 -0.1653 -0.0799  0.0773
 1288DECAN   C312863   2.761   6.205  12.533 -0.2715  0.2566 -0.0701
 1288DECAN   C412864   2.665   6.321  12.501 -0.1103  0.3833 -0.0896
 1288DECAN   C512865   2.522   6.269  12.477  0.0612 -0.4387  0.6432
 1288DECAN   C612866   2.408   6.364  12.515  0.4537  0.3090  0.0037
 1288DECAN   C712867   2.273   6.293  12.490  0.4061  0.2967  0.2833
 1288DECAN   C812868   2.159   6.393  12.514  0.4434  0.4812 -0.2988
 1288DECAN   C912869   2.141   6.508  12.413  0.1435  0.6662 -0.0368
 1288DECAN  C1012870   2.045   6.618  12.463 -0.2480  0.1618  0.3296
 1289DECAN   C112871   9.048   8.517   8.745  0.0055  0.1061 -0.4847
 1289DECAN   C212872   8.938   8.428   8.805  0.0779  0.3684  0.0406
 1289DECAN   C312873   8.873   8.462   8.940 -0.4746  0.3999 -0.2303
 1289DECAN   C412874   8.778   8.583   8.936  0.2947  1.0261  0.1986
 1289DECAN   C512875   8.714   8.627   9.069  0.0740  0.3134  0.3313
 1289DECAN   C612876   8.760   8.759   9.133  0.1790  0.3953  0.0876
 1289DECAN   C712877   8.679   8.800   9.258  0.0312  0.7891 -0.1362
 1289DECAN   C812878   8.527   8.814   9.234 -0.0514  0.8415  0.4103
 1289DECAN   C912879   8.450   8.810   9.368  0.1570  0.5116  0.5227
 1289DECAN  C1012880   8.301   8.833   9.340  0.1515 -0.0411  0.0800
 1290DECAN   C112881   3.826   5.668  11.744  0.2537 -0.4675  0.2471
 1290DECAN   C212882   3.730   5.788  11.752 -0.0383 -0.7168  0.5055
 1290DECAN   C312883   3.656   5.825  11.623  0.6469 -0.0101  0.3039
 1290DECAN   C412884   3.593   5.965  11.633  0.1241 -0.2382  0.2390
 1290DECAN   C512885   3.686   6.087  11.616 -0.4013  0.0721 -0.4826
 1290DECAN   C612886   3.616   6.224  11.604 -1.0702 -0.1713  0.4614
 1290DECAN   C712887   3.712   6.342  11.579 -1.2731 -0.2420 -0.7023
 1290DECAN   C812888   3.655   6.485  11.568  0.0073  0.3031 -0.4206
 1290DECAN   C912889   3.581   6.494  11.433  0.0715  0.2320 -0.4603
 1290DECAN  C1012890   3.525   6.635  11.409  0.2257  0.5562  0.9809
 1291DECAN   C112891   4.609   6.869   5.300 -0.1799 -0.4572  0.2770
 1291DECAN   C212892   4.705   6.804   5.402  0.1867 -0.0535  0.1966
 1291DECAN   C312893   4.766   6.904   5.502  0.1910 -0.1745  0.3160
 1291DECAN   C412894   4.842   7.006   5.416 -0.4086  0.4081  0.4628
 1291DECAN   C512895   4.927   7.107   5.495 -0.0322  0.2360  0.2808
 1291DECAN   C612896   5.051   7.050   5.568 -0.0169  0.4229  0.4006
 1291DECAN   C712897   5.118   7.150   5.664 -0.3705  0.2765  0.8051
 1291DECAN   C812898   5.156   7.290   5.612  0.3704 -0.2237 -0.0247
 1291DECAN   C912899   5.063   7.354   5.508  0.7386 -0.0407 -0.2463
 1291DECAN  C1012900   5.108   7.498   5.478 -0.0466  0.1992 -0.2975
 1292DECAN   C112901   7.703   4.249   5.755 -0.3527  0.0698 -0.2285
 1292DECAN   C212902   7.554   4.288   5.762 -0.3549 -0.0610  0.5449
 1292DECAN   C312903   7.511   4.377   5.644 -0.1077 -0.0477  0.4648
 1292DECAN   C412904   7.380   4.445   5.688  0.0290 -0.0254  0.8434
 1292DECAN   C512905   7.258   4.353   5.676  0.1899 -0.1087 -0.3017
 1292DECAN   C612906   7.239   4.247   5.787 -0.4816  0.0615 -0.2487
 1292DECAN   C712907   7.120   4.153   5.763 -0.1288 -0.3510 -0.3779
 1292DECAN   C812908   7.097   4.070   5.891 -0.1319  0.2973  0.0418
 1292DECAN   C912909   7.197   3.961   5.934  0.0867  0.0681 -1.0237
 1292DECAN  C1012910   7.339   4.019   5.943  0.0631  0.0012 -0.1290
 1293DECAN   C112911   9.052   5.248  10.498  0.0477  0.5780  0.9070
 1293DECAN   C212912   8.946   5.358  10.480  0.2653  0.6679  0.1462
 1293DECAN   C312913   9.006   5.489  10.425  0.1190  0.4020 -0.6603
 1293DECAN   C412914   8.897   5.597  10.422 -0.4852 -0.1715  0.1909
 1293DECAN   C512915   8.960   5.731  10.379 -0.0754 -0.5392 -0.3652
 1293DECAN   C612916   8.855   5.842  10.366  0.6681  0.2540  0.2766
 1293DECAN   C712917   8.917   5.973  10.313  0.0220  0.4480 -0.0102
 1293DECAN   C812918   8.812   6.085  10.297 -0.5491 -0.0040  0.5106
 1293DECAN   C912919   8.871   6.227  10.306  0.3705 -0.3672  0.3436
 1293DECAN  C1012920   8.986   6.237  10.204  0.3734 -0.5076  0.3336
 1294DECAN   C112921  10.440   8.074  10.376 -0.3743 -0.5131 -0.3396
 1294DECAN   C212922  10.477   8.015  10.513 -0.0861 -0.3346 -0.3397
 1294DECAN   C312923  10.454   7.863  10.520  0.0912 -0.3715 -0.5497
 1294DECAN   C412924  10.303   7.833  10.526  0.0222  0.0978  0.1456
 1294DECAN   C512925  10.237   7.936  10.620 -0.4191 -0.0504  0.0023
 1294DECAN   C612926  10.084   7.929  10.624 -0.4687  0.2619 -0.9292
 1294DECAN   C712927  10.023   8.043  10.709 -0.3211 -0.0088 -0.4545
 1294DECAN   C812928   9.870   8.057  10.714 -0.3043  0.0829 -0.1725
 1294DECAN   C912929   9.825   8.137  10.838 -0.1799  0.4709 -0.3772
 1294DECAN  C1012930   9.857   8.288  10.844  0.4021  0.3372  0.0360
 1295DECAN   C112931   2.263   4.243   7.233 -0.6485  0.0111 -0.1586
 1295DECAN   C212932   2.251   4.122   7.138 -0.0908 -0.2376  0.0813
 1295DECAN   C312933   2.208   3.989   7.202 -0.4029 -0.2163 -0.0797
 1295DECAN   C412934   2.173   3.895   7.085  0.1054  0.2390 -0.6071
 1295DECAN   C512935   2.290   3.824   7.015  0.4624 -0.1689  0.3886
 1295DECAN   C612936   2.252   3.714   6.914  0.1621  0.2635  0.0289
 1295DECAN   C712937   2.202   3.590   6.990  0.2258  0.2940  0.1219
 1295DECAN   C812938   2.111   3.511   6.893  0.1241  0.2223  0.2753
 1295DECAN   C912939   2.055   3.379   6.950 -0.0411  0.2378  0.1492
 1295DECAN  C1012940   1.989   3.272   6.861  0.2731  0.4238 -0.3153
 1296DECAN   C112941  10.355   3.288   9.572 -0.1949 -0.0140  0.3635
 1296DECAN   C212942  10.406   3.408   9.490 -0.1272  0.0862  0.5511
 1296DECAN   C312943  10.292   3.474   9.410 -0.2888 -0.7398  0.0879
 1296DECAN   C412944  10.356   3.551   9.293 -0.7970 -0.3947  0.0328
 1296DECAN   C512945  10.250   3.614   9.201 -0.0330 -0.0769 -0.6406
 1296DECAN   C612946  10.309   3.708   9.094  0.1244 -0.2362 -0.6945
 1296DECAN   C712947  10.208   3.771   8.995 -0.1586 -0.0326 -0.2799
 1296DECAN   C812948  10.201   3.679   8.872  0.2060 -0.3637 -0.0592
 1296DECAN   C912949  10.126   3.747   8.755 -0.1511 -0.2566  0.2286
 1296DECAN  C1012950  10.059   3.665   8.643 -0.0999 -0.3110  0.2371
 1297DECAN   C112951  10.768   8.450   8.098 -0.3637  0.4851  0.0238
 1297DECAN   C212952  10.697   8.389   8.220  0.0287 -0.0341 -0.0060
 1297DECAN   C312953  10.566   8.317   8.183 -0.0938  0.2123 -0.0544
 1297DECAN   C412954  10.449   8.412   8.152 -0.1400  0.1634 -0.0249
 1297DECAN   C512955  10.311   8.343   8.156 -0.3738  0.5998 -0.4534
 1297DECAN   C612956  10.298   8.215   8.071 -0.7923  0.1778  0.2343
 1297DECAN   C712957  10.179   8.119   8.085 -0.2886 -0.4707  0.0883
 1297DECAN   C812958  10.161   8.051   8.222  0.1334  0.2625  0.5150
 1297DECAN   C912959  10.026   7.978   8.237  0.2057  0.0862  0.2993
 1297DECAN  C1012960  10.001   7.911   8.373 -0.4809 -0.5169 -0.1164
 1298DECAN   C112961  10.421   2.702   8.684  0.2568  0.2548  0.4684
 1298DECAN   C212962  10.397   2.825   8.774  0.7011  0.5460  0.1914
 1298DECAN   C312963  10.401   2.801   8.926  0.0911  0.4751  0.1986
 1298DECAN   C412964  10.527   2.730   8.980 -0.2994 -0.2360  0.1963
 1298DECAN   C512965  10.566   2.605   8.899 -0.4122 -0.5631  0.6411
 1298DECAN   C612966  10.711   2.558   8.920 -0.1223  0.0667  0.0993
 1298DECAN   C712967  10.825   2.620   8.837  0.2769 -0.5321  0.1951
 1298DECAN   C812968  10.802   2.618   8.685  0.2267 -0.1766  0.1962
 1298DECAN   C912969  10.903   2.691   8.596  0.1539 -0.3325 -0.0162
 1298DECAN  C1012970  10.870   2.671   8.447  0.3990 -0.6117 -0.0341
 1299DECAN   C112971   4.636   2.489  11.135 -0.1499  0.1665 -0.2769
 1299DECAN   C212972   4.685   2.635  11.139  0.1280  0.0818 -0.5237
 1299DECAN   C312973   4.756   2.684  11.011  0.1556 -0.2782 -0.6465
 1299DECAN   C412974   4.790   2.832  10.989  0.4665 -0.2521 -0.0071
 1299DECAN   C512975   4.899   2.857  10.884  0.2292  0.2182 -0.1454
 1299DECAN   C612976   4.945   3.003  10.869 -0.2529  0.3812 -0.0699
 1299DECAN   C712977   5.050   3.021  10.757 -0.6550 -0.1249 -0.5337
 1299DECAN   C812978   5.067   3.165  10.705  0.0930 -0.1653 -0.4180
 1299DECAN   C912979   5.104   3.265  10.816  0.2890 -0.0893 -0.5527
 1299DECAN  C1012980   5.256   3.257  10.841  0.0964 -0.4814  0.5242
 1300DECAN   C112981   7.673   6.074   6.593  0.0767  0.2787 -0.0483
 1300DECAN   C212982   7.712   5.926   6.601 -0.3523  0.1770  0.1961
 1300DECAN   C312983   7.673   5.864   6.736 -0.6300 -0.0827 -0.0009
 1300DECAN   C412984   7.528   5.899   6.774 -0.4926  0.5451 -0.0530
 1300DECAN   C512985   7.466   5.833   6.899  0.5439 -0.1470  0.1111
 1300DECAN   C612986   7.340   5.901   6.955  0.2064 -0.0773 -0.7093
 1300DECAN   C712987   7.374   6.039   7.014  0.0176 -0.2666 -0.1495
 1300DECAN   C812988   7.250   6.094   7.088 -0.0710  0.2189 -0.6554
 1300DECAN   C912989   7.272   6.232   7.152 -0.0405 -0.1173  0.0640
 1300DECAN  C1012990   7.145   6.303   7.202  0.0464  0.1532 -0.0990
 1301DECAN   C112991   3.859   2.201   6.414  0.0805  0.4033  0.9771
 1301DECAN   C212992   3.738   2.129   6.349  0.4906  0.6960 -0.1414
 1301DECAN   C312993   3.725   2.120   6.196 -0.1097 -0.9168 -0.0128
 1301DECAN   C412994   3.581   2.087   6.154 -0.2170 -0.2982 -0.1451
 1301DECAN   C512995   3.549   1.941   6.191  0.0743 -0.1132  0.8513
 1301DECAN   C612996   3.655   1.849   6.128 -0.2225  0.3852 -0.3971
 1301DECAN   C712997   3.634   1.697   6.125  0.7034  0.2186  0.6002
 1301DECAN   C812998   3.739   1.632   6.033  0.0523  0.2205 -0.1666
 1301DECAN   C912999   3.750   1.478   6.037 -0.0033  0.2270  0.3104
 1301DECAN  C1013000   3.866   1.415   5.957 -0.5071 -0.1150 -0.1547
 1302DECAN   C113001   3.205   3.297  11.897 -0.1715  0.7054  0.1009
 1302DECAN   C213002   3.328   3.337  11.982  0.1899  0.2550 -0.2075
 1302DECAN   C313003   3.458   3.280  11.923  0.1932 -0.2351  0.2620
 1302DECAN   C413004   3.580   3.340  11.994  0.1516 -0.2395  0.3361
 1302DECAN   C513005   3.713   3.297  11.930  0.2291 -0.0828  0.3909
 1302DECAN   C613006   3.836   3.386  11.956  0.0210  0.3184  0.0251
 1302DECAN   C713007   3.960   3.336  11.880 -0.2158  0.0399 -0.1780
 1302DECAN   C813008   4.079   3.433  11.874 -0.1330 -0.0424  0.1416
 1302DECAN   C913009   4.155   3.440  12.008 -0.1753 -0.4028  0.1853
 1302DECAN  C1013010   4.078   3.492  12.131  0.1270 -0.0353  0.2222
 1303DECAN   C113011   3.784   9.804   5.030  0.0221 -0.4772  0.1610
 1303DECAN   C213012   3.656   9.724   5.002 -0.4169  0.1088  0.4844
 1303DECAN   C313013   3.517   9.790   4.996 -0.5343 -0.1324  0.5465
 1303DECAN   C413014   3.402   9.696   4.953 -0.0959 -0.2846 -0.3067
 1303DECAN   C513015   3.279   9.782   4.919 -0.0107  0.1186  0.4065
 1303DECAN   C613016   3.160   9.700   4.869 -0.1020  0.3769  0.2013
 1303DECAN   C713017   3.177   9.622   4.737 -0.3813  0.9363 -0.1696
 1303DECAN   C813018   3.068   9.516   4.715 -0.0558  0.4699  0.4496
 1303DECAN   C913019   3.051   9.417   4.831 -0.1142 -0.1053 -0.0413
 1303DECAN  C1013020   3.181   9.343   4.869 -0.2446 -0.4801 -0.3176
 1304DECAN   C113021   6.214   8.038   3.982 -0.2598 -0.1217  0.1764
 1304DECAN   C213022   6.228   7.917   3.888 -0.5194  0.1264 -0.1847
 1304DECAN   C313023   6.272   7.776   3.933 -0.4058  0.2293  0.0271
 1304DECAN   C413024   6.312   7.695   3.809 -0.5264  0.1744  0.0235
 1304DECAN   C513025   6.352   7.552   3.852 -0.2688  0.3124  0.2453
 1304DECAN   C613026   6.465   7.551   3.956  0.0434  1.0737 -0.0780
 1304DECAN   C713027   6.412   7.623   4.082  0.0630  0.2547  0.4002
 1304DECAN   C813028   6.502   7.633   4.207  0.2788  0.0658  0.2623
 1304DECAN   C913029   6.431   7.707   4.322 -0.1448 -0.9182  0.6523
 1304DECAN  C1013030   6.506   7.719   4.456  0.8184 -0.8413  0.1151
 1305DECAN   C113031   7.901   2.960   4.839  0.1286 -0.4721  0.4183
 1305DECAN   C213032   7.934   2.809   4.843  0.2806 -0.4749 -0.7512
 1305DECAN   C313033   8.067   2.787   4.917  0.1444 -0.2676 -0.4438
 1305DECAN   C413034   8.196   2.827   4.843  0.5483 -0.5529  0.0970
 1305DECAN   C513035   8.331   2.812   4.916  0.4242  0.4913  0.5674
 1305DECAN   C613036   8.350   2.660   4.930 -0.7297  0.2276 -0.4751
 1305DECAN   C713037   8.269   2.605   5.049  0.1669 -0.6321 -0.2404
 1305DECAN   C813038   8.337   2.497   5.135  0.0333 -0.3042  0.2861
 1305DECAN   C913039   8.257   2.453   5.258 -0.6551  0.0430 -0.0311
 1305DECAN  C1013040   8.337   2.365   5.356  0.4383  1.0266 -0.0192
 1306DECAN   C113041  10.915   2.107   9.059 -0.3769  0.0191  0.4089
 1306DECAN   C213042  10.966   2.220   9.149 -0.0549  0.0714  0.1612
 1306DECAN   C313043  10.856   2.319   9.191 -0.4339 -0.5083  0.5465
 1306DECAN   C413044  10.907   2.415   9.300 -0.2082 -0.1085  0.0915
 1306DECAN   C513045  10.827   2.544   9.324  0.5494  0.4141 -0.1508
 1306DECAN   C613046  10.877   2.669   9.398  0.0452  0.4053  0.2105
 1306DECAN   C713047  10.998   2.738   9.332  0.3735 -0.2673  0.1026
 1306DECAN   C813048  10.998   2.743   9.178 -0.1025 -0.0755  0.1072
 1306DECAN   C913049  11.137   2.742   9.113 -0.3130 -0.5154 -0.3416
 1306DECAN  C1013050  11.185   2.596   9.099 -0.1832 -0.5236  0.1587
 1307DECAN   C113051   1.398   9.130   9.915 -0.2196 -0.1371  0.3897
 1307DECAN   C213052   1.548   9.158   9.894 -0.4346  0.8323  0.0767
 1307DECAN   C313053   1.610   9.220  10.020  0.0450  0.0408  0.2376
 1307DECAN   C413054   1.586   9.131  10.144  0.4101 -0.4937 -0.0741
 1307DECAN   C513055   1.652   9.184  10.272 -0.5805  0.0017  0.2401
 1307DECAN   C613056   1.625   9.095  10.395  0.3523 -0.1845  0.3191
 1307DECAN   C713057   1.685   8.956  10.369  0.0098 -0.1720 -0.5596
 1307DECAN   C813058   1.687   8.860  10.489  0.4864  0.2150 -0.2526
 1307DECAN   C913059   1.794   8.903  10.590 -0.0134  0.0401  0.3555
 1307DECAN  C1013060   1.934   8.876  10.534  0.0122 -0.0830  0.4777
 1308DECAN   C113061   7.332  11.055  10.800 -0.0781 -0.3240  0.7439
 1308DECAN   C213062   7.257  11.115  10.921 -0.2123  0.5216  0.2485
 1308DECAN   C313063   7.294  11.022  11.038  0.2367  0.0644 -0.2437
 1308DECAN   C413064   7.258  11.089  11.172  0.5054 -0.6980  0.2162
 1308DECAN   C513065   7.321  11.019  11.294  0.4928 -0.3253  0.4373
 1308DECAN   C613066   7.273  11.057  11.436  0.9271  0.1127  0.4713
 1308DECAN   C713067   7.249  11.207  11.458  0.8217  0.1809 -0.0956
 1308DECAN   C813068   7.224  11.234  11.608 -0.0415  0.5558 -0.2927
 1308DECAN   C913069   7.213   0.134  11.660  0.5803  0.6216 -0.3382
 1308DECAN  C1013070   7.097   0.214  11.599 -0.1775 -0.1990  0.0010
 1309DECAN   C113071   4.451   3.441  13.022 -0.3903 -0.3892  0.1870
 1309DECAN   C213072   4.416   3.551  13.124  0.0747  0.0557 -0.1270
 1309DECAN   C313073   4.310   3.644  13.060  0.1142 -0.0349 -0.3268
 1309DECAN   C413074   4.356   3.718  12.934  0.5490  0.4226  0.0953
 1309DECAN   C513075   4.244   3.799  12.865 -0.0196 -0.1928  0.2946
 1309DECAN   C613076   4.168   3.915  12.932  0.2892  0.1689  0.0213
 1309DECAN   C713077   4.244   4.044  12.966  0.2199  0.0671  0.5740
 1309DECAN   C813078   4.277   4.121  12.837 -0.1028  0.1272  0.5268
 1309DECAN   C913079   4.363   4.247  12.857  0.6831 -0.2423 -0.4565
 1309DECAN  C1013080   4.284   4.340  12.950  0.4765 -0.7113 -0.1565
 1310DECAN   C113081   5.507   3.022  11.089 -0.3567 -0.1203 -0.2432
 1310DECAN   C213082   5.485   3.169  11.130  0.2591 -0.1143  0.0725
 1310DECAN   C313083   5.361   3.172  11.221  0.0247  0.5745 -0.2681
 1310DECAN   C413084   5.247   3.095  11.151  0.3677 -0.0612 -0.1306
 1310DECAN   C513085   5.115   3.068  11.225  0.3964  0.3531  0.0740
 1310DECAN   C613086   5.071   3.195  11.301  0.1012  0.0838  0.3597
 1310DECAN   C713087   4.922   3.214  11.332  0.0245  0.0780  0.0015
 1310DECAN   C813088   4.845   3.270  11.211  0.2300 -0.0959 -0.2099
 1310DECAN   C913089   4.895   3.408  11.163 -0.3732  0.0846 -0.3286
 1310DECAN  C1013090   4.840   3.445  11.024 -0.4300  0.0863 -0.3060
 1311DECAN   C113091   7.104   7.983   5.554 -0.1163  0.0220 -0.1227
 1311DECAN   C213092   6.956   7.998   5.514 -0.1005 -0.5117 -0.3980
 1311DECAN   C313093   6.858   7.965   5.628 -0.3932  0.6957 -0.2827
 1311DECAN   C413094   6.715   7.936   5.577 -0.2994  0.4859 -0.4278
 1311DECAN   C513095   6.628   7.864   5.682  0.3263 -0.1535 -0.3410
 1311DECAN   C613096   6.663   7.719   5.722  0.1970  0.0310  0.4464
 1311DECAN   C713097   6.580   7.672   5.843  0.1519 -0.1552  0.3436
 1311DECAN   C813098   6.602   7.749   5.975  0.1473  0.3517  0.0546
 1311DECAN   C913099   6.740   7.743   6.045  0.1392  0.4537  0.0795
 1311DECAN  C1013100   6.852   7.784   5.948  0.1346  0.1318 -0.0643
 1312DECAN   C113101   2.306  10.983  10.560  0.4405  0.5508 -0.3523
 1312DECAN   C213102   2.377  10.955  10.426 -0.1196  0.2613 -0.5904
 1312DECAN   C313103   2.471  10.835  10.439  0.0249  0.4258 -0.0911
 1312DECAN   C413104   2.598  10.826  10.351 -0.0092 -0.5373 -0.0536
 1312DECAN   C513105   2.666  10.688  10.360  0.4467 -0.3500 -0.5809
 1312DECAN   C613106   2.818  10.713  10.355  0.4603 -0.2788  0.1041
 1312DECAN   C713107   2.873  10.749  10.216  0.1366 -0.2048 -0.0054
 1312DECAN   C813108   3.016  10.805  10.222 -0.0481  0.2030  0.6432
 1312DECAN   C913109   3.059  10.878  10.093 -0.4408  0.6030  0.7362
 1312DECAN  C1013110   3.195  10.944  10.120 -0.3573  0.5442  0.4555
 1313DECAN   C113111   6.418   2.548   8.583 -0.2022 -0.4378  0.2065
 1313DECAN   C213112   6.355   2.640   8.476  0.1976 -0.0839  0.2711
 1313DECAN   C313113   6.247   2.567   8.395 -0.3930  0.3931  0.6221
 1313DECAN   C413114   6.164   2.639   8.287  0.6596 -0.3900 -0.7526
 1313DECAN   C513115   6.033   2.561   8.265 -0.0810  0.5236  0.2817
 1313DECAN   C613116   5.928   2.637   8.181  0.0346  0.7610  0.3509
 1313DECAN   C713117   5.789   2.583   8.218  0.1663  0.1734  0.0012
 1313DECAN   C813118   5.684   2.642   8.122 -0.0255  0.1583  0.2013
 1313DECAN   C913119   5.551   2.563   8.118 -0.1371  0.3523  0.0992
 1313DECAN  C1013120   5.458   2.616   8.007 -0.1260  0.5123  0.1660
 1314DECAN   C113121   1.455   8.306  12.718 -0.2597  0.1603  0.1431
 1314DECAN   C213122   1.557   8.361  12.820  0.4003 -0.1641 -0.3335
 1314DECAN   C313123   1.596   8.508  12.801 -0.1937  0.1575  0.8460
 1314DECAN   C413124   1.711   8.547  12.895  0.7800 -0.2566 -0.1484
 1314DECAN   C513125   1.749   8.696  12.883 -0.1325  0.0099  0.1858
 1314DECAN   C613126   1.852   8.744  12.987  0.0620 -0.1450  0.0648
 1314DECAN   C713127   1.887   8.893  12.967 -0.4417  0.0164  0.3655
 1314DECAN   C813128   1.999   8.938  13.062 -0.0233  0.6196 -0.4035
 1314DECAN   C913129   2.062   9.070  13.014 -0.1418  0.6379 -0.5089
 1314DECAN  C1013130   1.961   9.180  12.977 -0.4378  0.3192 -0.6480
 1315DECAN   C113131   7.669   0.492   9.230  0.2461  0.3664  0.1320
 1315DECAN   C213132   7.771   0.414   9.315 -0.0804 -0.1285  0.0713
 1315DECAN   C313133   7.833   0.496   9.429 -0.1247 -0.2061  0.1509
 1315DECAN   C413134   7.939   0.435   9.523 -0.3365 -0.7467  0.0406
 1315DECAN   C513135   7.966   0.522   9.646  0.0734 -1.1982  0.2757
 1315DECAN   C613136   8.099   0.488   9.715  0.2951 -0.1796  0.3709
 1315DECAN   C713137   8.107   0.337   9.746  0.9337 -0.3073 -0.3862
 1315DECAN   C813138   8.193   0.305   9.870  0.2740  0.1086  0.1880
 1315DECAN   C913139   8.202   0.153   9.894  0.3198  0.1353  0.3333
 1315DECAN  C1013140   8.282   0.073   9.790 -0.4109 -0.2592  0.0686
 1316DECAN   C113141   8.602   7.629  12.826  0.4373 -0.8000 -0.5336
 1316DECAN   C213142   8.521   7.620  12.696  0.0904 -0.3408 -0.3518
 1316DECAN   C313143   8.619   7.572  12.587  0.4924 -0.8018  0.2041
 1316DECAN   C413144   8.537   7.543  12.459 -0.3877 -0.2480  0.6306
 1316DECAN   C513145   8.605   7.473  12.340 -0.4290  0.0652  0.4229
 1316DECAN   C613146   8.530   7.470  12.205 -0.3508  0.0132  0.3805
 1316DECAN   C713147   8.606   7.387  12.100 -0.0338 -0.1788  0.7580
 1316DECAN   C813148   8.663   7.249  12.139  0.3707 -0.2631 -0.0975
 1316DECAN   C913149   8.747   7.196  12.022  0.8139  0.5582 -0.1586
 1316DECAN  C1013150   8.862   7.294  11.990  0.9524  0.4088 -0.1202
 1317DECAN   C113151   1.237  10.761  14.923 -0.3706  0.2985 -0.4972
 1317DECAN   C213152   1.337  10.703  14.821 -0.1069  0.6033 -0.4138
 1317DECAN   C313153   1.416  10.807  14.740  0.8652  0.2368  0.0516
 1317DECAN   C413154   1.501  10.742  14.629  0.3543  0.0000 -0.2036
 1317DECAN   C513155   1.576  10.850  14.549  0.3898 -0.1122 -0.3202
 1317DECAN   C613156   1.706  10.882  14.623 -0.0733 -0.1044  0.4969
 1317DECAN   C713157   1.825  10.802  14.565 -0.3083  0.1587 -0.3496
 1317DECAN   C813158   1.884  10.851  14.431  0.4728  0.0537 -0.0465
 1317DECAN   C913159   1.994  10.755  14.382  0.3983 -0.0420 -0.0260
 1317DECAN  C1013160   2.124  10.785  14.459  0.3413 -0.6442  0.3187
 1318DECAN   C113161   3.826   8.558   4.801 -0.6397  0.0690  0.0109
 1318DECAN   C213162   3.780   8.417   4.843 -0.4405  0.1555  0.5155
 1318DECAN   C313163   3.636   8.399   4.792 -0.1804  0.3007 -0.2886
 1318DECAN   C413164   3.572   8.263   4.826 -0.0037  0.2773 -0.0432
 1318DECAN   C513165   3.642   8.148   4.750  0.1777  0.3609 -0.0033
 1318DECAN   C613166   3.598   8.007   4.794  0.2724  0.1886 -0.4551
 1318DECAN   C713167   3.658   7.896   4.706  0.0248 -0.3753  0.0776
 1318DECAN   C813168   3.614   7.751   4.729 -0.4046 -0.2016  0.3619
 1318DECAN   C913169   3.680   7.644   4.640  0.1594  0.3128  0.1595
 1318DECAN  C1013170   3.590   7.627   4.516  0.0172 -0.3582  0.3485
 1319DECAN   C113171   5.989   3.093   8.104  0.6287  0.2755 -0.0952
 1319DECAN   C213172   6.060   3.059   8.237 -0.1355 -0.1515  0.2132
 1319DECAN   C313173   6.182   3.151   8.256 -0.3149  0.3251 -0.8469
 1319DECAN   C413174   6.128   3.285   8.311 -0.7895 -0.3666  0.4002
 1319DECAN   C513175   6.054   3.360   8.199  0.6816  0.1940 -0.2154
 1319DECAN   C613176   5.984   3.487   8.249 -0.0867 -0.2941 -0.0441
 1319DECAN   C713177   6.100   3.582   8.283  0.1049 -0.4674 -0.2117
 1319DECAN   C813178   6.223   3.563   8.192  0.3400  0.1414 -0.0226
 1319DECAN   C913179   6.284   3.692   8.134  0.6267  0.3104  0.6458
 1319DECAN  C1013180   6.418   3.668   8.062  0.4597  0.2616  0.3480
 1320DECAN   C113181   7.854   5.200   9.779 -0.9024 -0.1043 -0.1414
 1320DECAN   C213182   7.949   5.161   9.664 -0.0700 -0.0287  0.5111
 1320DECAN   C313183   8.098   5.167   9.703  0.2407  0.1001 -0.6714
 1320DECAN   C413184   8.133   5.070   9.817 -0.2172  0.2072 -0.4394
 1320DECAN   C513185   8.106   5.113   9.963  0.5671  0.3674 -0.3382
 1320DECAN   C613186   8.178   5.018  10.060 -0.7047 -0.3737 -0.0931
 1320DECAN   C713187   8.117   5.018  10.202 -0.0290  0.1408  0.2057
 1320DECAN   C813188   8.210   4.945  10.301  0.2525  0.2022 -0.0099
 1320DECAN   C913189   8.248   4.807  10.243 -0.4024 -0.3124  0.7580
 1320DECAN  C1013190   8.334   4.798  10.115  0.1511  0.5166  1.0617
 1321DECAN   C113191   1.701   3.900  13.388  0.1218 -0.1680  0.4967
 1321DECAN   C213192   1.635   3.767  13.345 -0.0987  0.0145  0.2667
 1321DECAN   C313193   1.657   3.643  13.432 -0.3854 -0.2281 -0.0028
 1321DECAN   C413194   1.603   3.515  13.365 -0.1753 -0.3710  0.0960
 1321DECAN   C513195   1.660   3.393  13.439  0.6726 -0.2249 -0.2958
 1321DECAN   C613196   1.622   3.384  13.588  0.2339  0.0042 -0.3917
 1321DECAN   C713197   1.724   3.295  13.662 -0.3418 -0.0895  0.3051
 1321DECAN   C813198   1.865   3.357  13.678 -0.3971  0.1963 -0.2846
 1321DECAN   C913199   1.962   3.272  13.762 -0.3167  0.6813  0.1125
 1321DECAN  C1013200   2.103   3.332  13.777  0.0055 -0.0361 -0.0303
 1322DECAN   C113201   5.274   9.922   5.494  0.3919  0.6402 -0.4415
 1322DECAN   C213202   5.202   9.792   5.452  0.4998  0.4563 -0.0583
 1322DECAN   C313203   5.296   9.682   5.400 -0.3205 -0.2834 -0.0005
 1322DECAN   C413204   5.250   9.535   5.399 -0.1939 -0.3256  0.3528
 1322DECAN   C513205   5.336   9.446   5.308  0.0506  0.0045  0.2600
 1322DECAN   C613206   5.332   9.293   5.325 -0.7527  0.0018  0.0780
 1322DECAN   C713207   5.438   9.217   5.243 -0.2127  0.5693  0.2424
 1322DECAN   C813208   5.582   9.271   5.259  0.2057 -0.6661  0.7798
 1322DECAN   C913209   5.682   9.213   5.157 -0.0982  0.3842 -0.1374
 1322DECAN  C1013210   5.643   9.238   5.010  0.5236  0.1936 -0.3379
 1323DECAN   C113211  11.040   9.523  10.387 -0.5355 -0.0765  0.5286
 1323DECAN   C213212  11.186   9.564  10.412 -0.4878  0.2037 -0.1747
 1323DECAN   C313213  11.204   9.697  10.488  0.6392  0.2399 -0.4818
 1323DECAN   C413214  11.099   9.795  10.433  0.2385  0.1993  0.1919
 1323DECAN   C513215  11.093   9.943  10.477 -0.4346  0.1550  0.2590
 1323DECAN   C613216  10.989  10.028  10.402 -0.1044 -0.2126 -0.6258
 1323DECAN   C713217  10.986  10.164  10.474  0.8804 -0.4042 -0.2000
 1323DECAN   C813218  11.031  10.164  10.621  0.3159  0.1705 -0.0203
 1323DECAN   C913219  11.008  10.296  10.697 -0.1227 -0.0040  0.1452
 1323DECAN  C1013220  10.974  10.275  10.846 -0.8277  0.1834  0.0178
 1324DECAN   C113221   8.698   9.058   7.380  0.1114 -0.0070  0.3812
 1324DECAN   C213222   8.560   9.015   7.327  0.1803  0.3136 -0.0597
 1324DECAN   C313223   8.456   8.992   7.439  0.2853 -0.0377 -0.0362
 1324DECAN   C413224   8.315   8.957   7.390  0.2878 -0.2590  0.1143
 1324DECAN   C513225   8.226   8.890   7.497 -0.3437 -0.0050 -0.2471
 1324DECAN   C613226   8.087   8.843   7.451 -0.1649 -0.0431 -0.7529
 1324DECAN   C713227   8.032   8.763   7.571 -0.1426  0.2329 -0.5597
 1324DECAN   C813228   7.898   8.697   7.533 -0.3468  0.1094  0.3551
 1324DECAN   C913229   7.785   8.793   7.491 -0.1693  0.0233 -0.3313
 1324DECAN  C1013230   7.653   8.722   7.458  0.0964 -0.2037 -0.9217
 1325DECAN   C113231   4.752   9.509   4.929  0.0529  0.3958 -0.1102
 1325DECAN   C213232   4.687   9.557   4.798 -0.2150  0.3888  0.0191
 1325DECAN   C313233   4.542   9.605   4.814 -0.2475  0.3803 -0.2379
 1325DECAN   C413234   4.514   9.725   4.907 -0.0048  0.4031 -0.1955
 1325DECAN   C513235   4.374   9.739   4.970  0.0105  0.0257 -0.0725
 1325DECAN   C613236   4.364   9.819   5.101  0.4371 -0.0871  0.0310
 1325DECAN   C713237   4.215   9.846   5.127  0.3917  0.0182 -0.3387
 1325DECAN   C813238   4.127   9.720   5.143 -0.5080  0.6113 -0.5266
 1325DECAN   C913239   4.177   9.609   5.049 -0.2317  0.0020  0.3281
 1325DECAN  C1013240   4.088   9.484   5.033 -0.0828 -0.0872  0.2016
 1326DECAN   C113241   7.665  10.706  12.909  0.1637 -0.5531  0.5912
 1326DECAN   C213242   7.551  10.613  12.957 -0.7892  0.4256  0.2446
 1326DECAN   C313243   7.579  10.463  12.937 -0.1412  0.4933  0.6179
 1326DECAN   C413244   7.696  10.405  13.019  0.1104  0.5100  0.2711
 1326DECAN   C513245   7.751  10.278  12.952  0.0409  0.3817  0.4568
 1326DECAN   C613246   7.880  10.214  13.005  0.2094  0.1281 -0.2431
 1326DECAN   C713247   7.899  10.075  12.941 -0.3968 -0.1355  0.1388
 1326DECAN   C813248   8.023  10.004  12.997 -0.1616 -0.1313 -0.3695
 1326DECAN   C913249   8.009   9.966  13.146  0.5769  0.0911 -0.2387
 1326DECAN  C1013250   8.130   9.891  13.206  0.1081 -0.2872  0.2435
 1327DECAN   C113251   6.418  10.666   5.045  0.0717  0.2258  0.5213
 1327DECAN   C213252   6.326  10.671   4.922  0.5278 -0.4575  0.1486
 1327DECAN   C313253   6.393  10.657   4.784  0.0762 -0.2010 -0.0999
 1327DECAN   C413254   6.292  10.659   4.668 -0.1629  0.2609  0.1141
 1327DECAN   C513255   6.366  10.664   4.533 -0.1349 -0.1048  0.1143
 1327DECAN   C613256   6.269  10.630   4.418  0.0519 -0.6384  0.1112
 1327DECAN   C713257   6.343  10.620   4.284 -0.4362  0.0193 -0.2138
 1327DECAN   C813258   6.252  10.559   4.176 -0.3712 -0.1825 -0.1568
 1327DECAN   C913259   6.337  10.533   4.050 -0.0056  0.0506  0.0417
 1327DECAN  C1013260   6.405  10.662   4.001  0.4466 -0.2101 -0.0254
 1328DECAN   C113261   5.412   3.486   9.890  0.1337 -0.4318  0.1595
 1328DECAN   C213262   5.275   3.416   9.899 -0.0315 -0.1217  0.0879
 1328DECAN   C313263   5.276   3.275   9.962 -0.5027 -0.2823 -0.2655
 1328DECAN   C413264   5.313   3.276  10.111  0.0583 -0.1623 -0.4062
 1328DECAN   C513265   5.228   3.358  10.209  0.5947 -0.0949  0.0098
 1328DECAN   C613266   5.289   3.369  10.350  0.1225  0.5879  0.1641
 1328DECAN   C713267   5.189   3.443  10.442  0.1135  0.3078  0.3822
 1328DECAN   C813268   5.155   3.592  10.425 -0.1455  0.1976 -0.0840
 1328DECAN   C913269   5.038   3.629  10.519  0.2887  0.3329  0.4036
 1328DECAN  C1013270   5.018   3.780  10.542 -0.3704  0.3189 -0.0608
 1329DECAN   C113271   7.088   2.761   5.078  0.4116  0.4245 -0.4039
 1329DECAN   C213272   7.060   2.880   4.984 -0.0804  0.2568 -0.4691
 1329DECAN   C313273   7.181   2.974   4.968 -0.1816  0.4945  0.1347
 1329DECAN   C413274   7.149   3.090   4.872 -0.3911  0.2491 -0.0951
 1329DECAN   C513275   7.269   3.176   4.828 -0.0320 -0.0876  0.2118
 1329DECAN   C613276   7.294   3.303   4.911  0.2222  0.0211 -0.0299
 1329DECAN   C713277   7.195   3.421   4.902 -0.0399 -0.2158 -0.2571
 1329DECAN   C813278   7.236   3.539   4.991  0.1233  0.0411 -0.6701
 1329DECAN   C913279   7.126   3.647   4.983 -0.0856 -0.1318 -0.1991
 1329DECAN  C1013280   7.171   3.792   5.010 -1.2798  0.3048 -0.5198
 1330DECAN   C113281  10.140   1.195   6.644  0.6336  0.5217  0.3215
 1330DECAN   C213282  10.174   1.099   6.759 -0.2415 -0.2058 -0.0073
 1330DECAN   C313283  10.193   0.951   6.720  0.2194 -0.0624 -0.3451
 1330DECAN   C413284  10.248   0.880   6.845 -0.3396 -0.1084 -0.1214
 1330DECAN   C513285  10.278   0.736   6.801  0.3445 -0.1051  0.3243
 1330DECAN   C613286  10.386   0.674   6.892  0.3175  0.2365  0.5881
 1330DECAN   C713287  10.521   0.723   6.835  0.1820 -0.0748 -0.0077
 1330DECAN   C813288  10.640   0.658   6.909  0.1138 -0.0261  0.1464
 1330DECAN   C913289  10.618   0.507   6.926 -0.0051 -0.0518 -0.2060
 1330DECAN  C1013290  10.757   0.441   6.936 -0.0609 -0.1454 -0.0119
 1331DECAN   C113291   7.742   1.093   3.879  0.2986  0.1998 -0.1593
 1331DECAN   C213292   7.688   1.038   4.012 -0.0944  0.2683 -0.2890
 1331DECAN   C313293   7.566   0.947   3.991  0.1229 -0.1049  0.0361
 1331DECAN   C413294   7.524   0.851   4.104 -0.0772  0.2874  0.2985
 1331DECAN   C513295   7.401   0.767   4.065 -0.2227  0.6958 -0.1367
 1331DECAN   C613296   7.441   0.630   4.008 -0.5474  0.5898 -0.1099
 1331DECAN   C713297   7.324   0.544   3.956 -0.2555 -0.1721  0.4718
 1331DECAN   C813298   7.362   0.416   3.881  0.2638  0.5716 -0.5502
 1331DECAN   C913299   7.399   0.303   3.978  0.1632  0.5500 -0.5366
 1331DECAN  C1013300   7.502   0.351   4.083  0.1933 -0.1162 -0.2542
 1332DECAN   C113301   9.344   8.459   9.482  0.4223  0.2553 -0.0799
 1332DECAN   C213302   9.242   8.377   9.402  0.3446  0.1599  0.1126
 1332DECAN   C313303   9.097   8.426   9.417  0.1158 -0.5220  0.1549
 1332DECAN   C413304   8.998   8.342   9.334 -0.0987 -0.1762  0.0572
 1332DECAN   C513305   8.974   8.200   9.389 -0.1625 -0.1530  0.0875
 1332DECAN   C613306   8.903   8.127   9.272 -0.2522  0.0482  0.0168
 1332DECAN   C713307   8.848   7.990   9.315 -0.0680 -0.0010  0.1002
 1332DECAN   C813308   8.738   7.933   9.224 -0.2324  0.2631  0.1323
 1332DECAN   C913309   8.728   7.783   9.257 -0.4297  0.2903  0.1946
 1332DECAN  C1013310   8.647   7.704   9.152  0.0985 -0.0948  0.0762
 1333DECAN   C113311   7.389   9.732   6.981  0.6117 -0.3336  0.4888
 1333DECAN   C213312   7.418   9.741   6.830 -0.1479  0.5357  0.3911
 1333DECAN   C313313   7.465   9.874   6.768 -0.0742  0.3234 -0.0182
 1333DECAN   C413314   7.392   9.991   6.837 -0.2432  0.1909  0.0286
 1333DECAN   C513315   7.479  10.118   6.843 -0.2171  0.1700  0.0890
 1333DECAN   C613316   7.423  10.255   6.885 -0.0883  0.0638  0.6178
 1333DECAN   C713317   7.528  10.366   6.893  0.0376 -0.0346  0.3483
 1333DECAN   C813318   7.478  10.511   6.913 -0.0440 -0.0158  0.0120
 1333DECAN   C913319   7.592  10.612   6.935  0.1040 -0.2442  0.3058
 1333DECAN  C1013320   7.547  10.759   6.941  0.1054 -0.2645  0.8013
 1334DECAN   C113321   9.179   4.992   8.281 -0.3063  0.1313 -0.0224
 1334DECAN   C213322   9.268   5.018   8.158  0.0085  0.3588  0.2512
 1334DECAN   C313323   9.359   5.141   8.179  0.3220  0.2175 -0.2430
 1334DECAN   C413324   9.457   5.183   8.069  0.8933  0.0310  0.1911
 1334DECAN   C513325   9.562   5.083   8.016  0.0500 -0.5458 -0.4006
 1334DECAN   C613326   9.684   5.145   7.945 -0.0785 -0.1521 -0.2800
 1334DECAN   C713327   9.789   5.044   7.898 -0.0761  0.0497 -0.7086
 1334DECAN   C813328   9.929   5.096   7.859 -0.2246  0.6979 -0.3782
 1334DECAN   C913329  10.003   5.174   7.969  0.0029 -0.1464  0.0742
 1334DECAN  C1013330   9.947   5.313   8.006 -0.3555 -0.2558 -0.0499
 1335DECAN   C113331   8.509   8.321  11.817  0.0500 -0.2724  0.3071
 1335DECAN   C213332   8.394   8.227  11.857 -0.3326  0.2538  0.4562
 1335DECAN   C313333   8.425   8.122  11.965  0.3308  0.0254  0.0496
 1335DECAN   C413334   8.304   8.055  12.033  0.0712  0.3720 -0.0709
 1335DECAN   C513335   8.209   8.151  12.108  0.2797  0.3552  0.2143
 1335DECAN   C613336   8.290   8.225  12.216  0.3301  0.1570  0.3128
 1335DECAN   C713337   8.229   8.354  12.275  0.2071  0.2097  0.0704
 1335DECAN   C813338   8.080   8.337  12.310  0.2669 -0.3741  0.0498
 1335DECAN   C913339   7.993   8.308  12.187  0.3794 -0.4069 -0.0220
 1335DECAN  C1013340   7.839   8.294  12.187  0.3611 -0.2123 -0.2126
 1336DECAN   C113341   8.746   1.305   4.054  0.0195  0.1821  0.0515
 1336DECAN   C213342   8.721   1.393   4.177  0.2232  0.0907  0.1583
 1336DECAN   C313343   8.721   1.543   4.142 -0.3422  0.0164 -0.1593
 1336DECAN   C413344   8.860   1.581   4.087 -0.3734  0.5024  0.0993
 1336DECAN   C513345   8.908   1.499   3.966 -0.0342  0.7564  0.0599
 1336DECAN   C613346   9.054   1.510   3.921  0.1089 -0.3988  0.2249
 1336DECAN   C713347   9.160   1.497   4.032  0.3456  0.1999  0.0758
 1336DECAN   C813348   9.299   1.494   3.967  0.2309  0.0702 -0.1667
 1336DECAN   C913349   9.414   1.498   4.069  0.0058 -1.0050  0.1400
 1336DECAN  C1013350   9.545   1.470   3.994  0.8004  0.1951  1.0287
 1337DECAN   C113351   1.886   2.748   8.291 -0.3483 -0.5670  0.2099
 1337DECAN   C213352   1.995   2.835   8.356  0.0346 -0.6306 -0.3358
 1337DECAN   C313353   2.033   2.960   8.274 -0.2717 -0.0861  0.3391
 1337DECAN   C413354   1.901   3.031   8.238 -0.3993 -0.7347 -0.5064
 1337DECAN   C513355   1.910   3.135   8.125 -0.3340  0.2958  0.4245
 1337DECAN   C613356   1.786   3.221   8.097 -0.3692  0.0111 -0.3071
 1337DECAN   C713357   1.675   3.145   8.021  0.2547 -0.8535 -0.3737
 1337DECAN   C813358   1.733   3.062   7.905  0.4330 -0.6418 -0.4378
 1337DECAN   C913359   1.616   3.009   7.820  0.1284 -0.1090 -0.3531
 1337DECAN  C1013360   1.656   2.913   7.707  0.1908 -0.8225  0.2704
 1338DECAN   C113361   3.660   7.752   9.774  0.1394  0.0832 -0.4076
 1338DECAN   C213362   3.609   7.685   9.904  0.2570 -0.1088 -0.4594
 1338DECAN   C313363   3.724   7.596   9.954 -0.0068 -0.5203 -0.5795
 1338DECAN   C413364   3.726   7.459   9.884 -0.7406 -0.4718 -0.7002
 1338DECAN   C513365   3.844   7.365   9.912 -0.4633  0.1417  0.2416
 1338DECAN   C613366   3.825   7.226   9.850 -0.0547  0.2564 -0.1473
 1338DECAN   C713367   3.909   7.114   9.914  0.0970  0.3711 -0.1437
 1338DECAN   C813368   3.905   6.990   9.823  0.1800  0.1810  0.1090
 1338DECAN   C913369   4.006   6.880   9.863  0.2477  0.1453 -0.1586
 1338DECAN  C1013370   3.984   6.757   9.773  0.2974  0.0971 -0.1057
 1339DECAN   C113371   7.576   3.888  11.457 -0.1371  0.5567  0.7198
 1339DECAN   C213372   7.719   3.913  11.405 -0.0581 -1.1617  0.0529
 1339DECAN   C313373   7.744   3.850  11.267 -0.1674 -0.0918 -0.4621
 1339DECAN   C413374   7.728   3.697  11.269 -0.1176 -0.0895  0.0072
 1339DECAN   C513375   7.748   3.631  11.132 -0.2865  0.0703 -0.0947
 1339DECAN   C613376   7.730   3.479  11.120  0.2508  0.0172 -0.2642
 1339DECAN   C713377   7.599   3.419  11.177  0.4338 -0.1441 -0.0117
 1339DECAN   C813378   7.575   3.272  11.139  0.0165 -0.0547 -0.0991
 1339DECAN   C913379   7.598   3.238  10.991  0.0236 -0.4154 -0.0175
 1339DECAN  C1013380   7.581   3.094  10.938  0.0763 -0.3886 -0.1081
 1340DECAN   C113381   9.431   9.498   4.358  0.3131  0.3013 -0.4424
 1340DECAN   C213382   9.297   9.439   4.309  0.2102  0.1761 -0.0103
 1340DECAN   C313383   9.310   9.289   4.280  0.0338  0.2066 -0.2466
 1340DECAN   C413384   9.194   9.237   4.192 -0.2371 -0.5127  0.5195
 1340DECAN   C513385   9.057   9.251   4.260 -0.3480  0.2681  0.1507
 1340DECAN   C613386   8.959   9.169   4.174  0.3296  0.1944 -0.5549
 1340DECAN   C713387   8.965   9.214   4.027 -0.1415  0.3524 -0.5247
 1340DECAN   C813388   8.939   9.094   3.934 -0.5434 -0.0713  0.1235
 1340DECAN   C913389   8.794   9.046   3.912 -0.4690 -0.0677 -0.4038
 1340DECAN  C1013390   8.703   9.149   3.844 -0.8021  0.1417  0.3432
 1341DECAN   C113391  10.424  10.942  13.174 -0.0879 -0.8096  0.1939
 1341DECAN   C213392  10.290  10.919  13.101  0.0381 -0.3080 -0.1994
 1341DECAN   C313393  10.261  10.781  13.041 -0.5000 -0.1270 -0.3602
 1341DECAN   C413394  10.129  10.761  12.963 -0.6360  0.0294 -0.1682
 1341DECAN   C513395  10.123  10.635  12.876 -0.1791 -0.4194  0.4366
 1341DECAN   C613396  10.051  10.663  12.742  0.2553  0.0683  0.3029
 1341DECAN   C713397  10.023  10.528  12.674  0.2399  0.4324 -0.4269
 1341DECAN   C813398   9.954  10.516  12.537 -0.3177 -0.3561 -0.0897
 1341DECAN   C913399   9.801  10.527  12.538 -0.3523 -0.8490  0.2649
 1341DECAN  C1013400   9.732  10.490  12.405  0.0131  0.7988 -0.4066
 1342DECAN   C113401   4.308   9.459   4.536  0.1610  0.2542  0.1107
 1342DECAN   C213402   4.222   9.500   4.657  0.0192  0.4910 -0.0708
 1342DECAN   C313403   4.077   9.449   4.649  0.3484 -0.5812  0.6975
 1342DECAN   C413404   4.077   9.298   4.681 -0.2364 -0.7162  0.0676
 1342DECAN   C513405   3.938   9.235   4.705 -0.5840  0.1979  0.5129
 1342DECAN   C613406   3.959   9.087   4.743 -0.0587  0.2241  0.3344
 1342DECAN   C713407   4.021   8.985   4.646 -0.2883 -0.0053  0.4266
 1342DECAN   C813408   4.055   8.846   4.703 -0.2312 -0.1104  0.1376
 1342DECAN   C913409   4.161   8.761   4.631  0.4348  0.2763  0.6507
 1342DECAN  C1013410   4.197   8.633   4.708  0.1829  0.3586  0.9083
 1343DECAN   C113411   9.628   6.950   9.891 -0.4332  0.3899 -0.6508
 1343DECAN   C213412   9.520   6.861   9.827 -0.3656 -0.1618 -0.0147
 1343DECAN   C313413   9.571   6.726   9.771 -0.1784 -0.0327 -0.1575
 1343DECAN   C413414   9.462   6.626   9.726 -0.1108 -0.3638  0.4011
 1343DECAN   C513415   9.518   6.491   9.677  0.7809  0.0441  0.2658
 1343DECAN   C613416   9.425   6.394   9.602  0.1812  0.2170  0.7748
 1343DECAN   C713417   9.484   6.254   9.630  0.0818  0.0871  0.3529
 1343DECAN   C813418   9.421   6.140   9.549  0.4998  0.3675 -0.3717
 1343DECAN   C913419   9.506   6.012   9.553 -0.0492  0.0025 -0.3062
 1343DECAN  C1013420   9.445   5.892   9.478  0.4326 -0.2475 -0.3046
 1344DECAN   C113421   1.190   9.968   9.426 -0.4821 -0.0705  0.5130
 1344DECAN   C213422   1.190  10.083   9.530 -0.3694  0.0754  0.3528
 1344DECAN   C313423   1.243  10.218   9.481 -0.1461 -0.0438  0.2638
 1344DECAN   C413424   1.226  10.329   9.587 -0.5893  0.4248 -0.2913
 1344DECAN   C513425   1.321  10.448   9.563 -0.0967  0.1599  0.3437
 1344DECAN   C613426   1.292  10.565   9.660  0.3220  0.2018  0.4232
 1344DECAN   C713427   1.391  10.678   9.625  0.0614  0.2377 -0.2215
 1344DECAN   C813428   1.385  10.794   9.726 -0.1344 -0.0810  0.1396
 1344DECAN   C913429   1.511  10.882   9.727  0.3173 -0.7194  0.1405
 1344DECAN  C1013430   1.510  10.993   9.619 -0.4263 -0.3089  0.5638
 1345DECAN   C113431   9.914   1.932  12.101 -0.0688  0.3267 -0.6684
 1345DECAN   C213432   9.795   1.917  12.004 -0.9639 -0.0964  0.4679
 1345DECAN   C313433   9.826   1.813  11.894 -0.0274 -0.1415  0.7602
 1345DECAN   C413434   9.710   1.809  11.793 -0.1034 -0.2121  0.8499
 1345DECAN   C513435   9.716   1.684  11.704 -0.1685  0.4413 -0.0857
 1345DECAN   C613436   9.736   1.553  11.782  0.0111  0.4300 -0.1492
 1345DECAN   C713437   9.778   1.431  11.698 -0.4242  0.1982 -0.0362
 1345DECAN   C813438   9.778   1.305  11.785  0.1196  0.4308  0.3052
 1345DECAN   C913439   9.819   1.187  11.695 -0.0488  0.6598 -0.0744
 1345DECAN  C1013440   9.825   1.051  11.768  0.3236  0.7157  0.0041
 1346DECAN   C113441   3.071  11.122  10.506 -0.0486  0.3584  0.3449
 1346DECAN   C213442   3.085  11.229  10.397  0.1040 -0.1061 -0.0935
 1346DECAN   C313443   2.987   0.104  10.403  0.6277  0.3502 -0.4765
 1346DECAN   C413444   2.996   0.172  10.541  0.0397  0.1399 -0.3329
 1346DECAN   C513445   3.138   0.172  10.598 -0.0221  1.0095 -0.1644
 1346DECAN   C613446   3.161   0.222  10.742  0.4340  0.0592  0.1014
 1346DECAN   C713447   3.312   0.237  10.766  0.5351  0.3592 -0.7048
 1346DECAN   C813448   3.354   0.296  10.901  0.2539 -0.0546 -0.4342
 1346DECAN   C913449   3.506   0.323  10.907  0.1977  0.2723 -0.4637
 1346DECAN  C1013450   3.561   0.349  11.048  0.0398 -0.2410 -0.3041
 1347DECAN   C113451   9.903   9.969  12.485  0.2352  0.2033 -0.5468
 1347DECAN   C213452   9.957  10.091  12.408  0.3640  0.6618  0.2512
 1347DECAN   C313453  10.073  10.056  12.312 -0.4474 -0.2648 -0.4168
 1347DECAN   C413454  10.101  10.173  12.216  0.6677  0.0717  0.2978
 1347DECAN   C513455  10.188  10.144  12.092  0.5461 -0.3551  0.3110
 1347DECAN   C613456  10.128  10.054  11.981  0.5541 -0.2948  0.2580
 1347DECAN   C713457  10.216  10.042  11.855  0.3242  0.4206  0.0210
 1347DECAN   C813458  10.155   9.971  11.732  0.4996 -0.1989  0.2849
 1347DECAN   C913459  10.243   9.959  11.606 -0.2371 -0.0997 -0.2454
 1347DECAN  C1013460  10.249  10.085  11.518  0.0122  0.0057 -0.0771
 1348DECAN   C113461   2.612   8.441  12.436  0.6164  0.2423  0.2807
 1348DECAN   C213462   2.611   8.371  12.573 -1.0750  0.0123  0.1701
 1348DECAN   C313463   2.543   8.235  12.599 -0.2082 -0.3861  0.3932
 1348DECAN   C413464   2.391   8.228  12.574 -0.1711 -0.0082  0.0495
 1348DECAN   C513465   2.333   8.086  12.571 -0.0192 -0.0715  0.0536
 1348DECAN   C613466   2.361   8.019  12.707  0.2666  0.4703  0.2646
 1348DECAN   C713467   2.309   7.874  12.713 -0.1824  0.5960 -0.3780
 1348DECAN   C813468   2.338   7.810  12.850 -0.0597  0.3549 -0.5157
 1348DECAN   C913469   2.306   7.905  12.967  0.7971  0.2329 -0.1732
 1348DECAN  C1013470   2.329   7.836  13.104  0.1341 -0.6276 -0.4862
 1349DECAN   C113471   1.953   3.631   8.070  0.0440  0.0530  0.1534
 1349DECAN   C213472   1.978   3.723   7.949 -0.2567 -0.0062  0.0461
 1349DECAN   C313473   1.845   3.746   7.875 -0.2491  0.2260  0.1019
 1349DECAN   C413474   1.754   3.838   7.959  0.2996  1.0020 -0.1470
 1349DECAN   C513475   1.627   3.875   7.881 -0.1870  0.3752  0.3416
 1349DECAN   C613476   1.533   3.970   7.958  0.0123  0.0600  0.9870
 1349DECAN   C713477   1.415   4.025   7.874  0.1935 -0.2570  0.5164
 1349DECAN   C813478   1.324   3.905   7.844 -0.0558 -0.0260  0.3419
 1349DECAN   C913479   1.202   3.948   7.762  0.1314  0.2428  0.2018
 1349DECAN  C1013480   1.111   4.059   7.820 -0.1677  0.2143 -0.2025
 1350DECAN   C113481   2.434   8.975   9.958 -0.0540  0.3010  0.0325
 1350DECAN   C213482   2.298   9.046   9.958 -0.1125  0.1897 -0.3425
 1350DECAN   C313483   2.238   9.049  10.099  1.1247  0.1050  0.2006
 1350DECAN   C413484   2.093   9.102  10.093  0.9862 -0.2957 -0.0146
 1350DECAN   C513485   2.022   9.133  10.227  0.3702  0.3517 -0.4844
 1350DECAN   C613486   2.089   9.247  10.306  0.3013  0.1893 -0.1915
 1350DECAN   C713487   2.235   9.212  10.340  0.1235  0.0616  0.4579
 1350DECAN   C813488   2.335   9.328  10.352  0.6666 -0.3667  0.1248
 1350DECAN   C913489   2.479   9.276  10.366  0.8980  0.1121 -0.4318
 1350DECAN  C1013490   2.557   9.397  10.419  0.1516  0.0887  0.7504
 1351DECAN   C113491   5.625   7.648   4.718  0.0613  0.1342 -0.3424
 1351DECAN   C213492   5.614   7.566   4.588 -0.3618  0.3257 -0.4273
 1351DECAN   C313493   5.710   7.602   4.473 -0.1122  0.2666 -0.2383
 1351DECAN   C413494   5.861   7.601   4.503 -0.1936  0.4084  0.1892
 1351DECAN   C513495   5.958   7.636   4.389  0.0658  0.2396  0.3563
 1351DECAN   C613496   5.934   7.540   4.270  0.9525  0.2774  0.1399
 1351DECAN   C713497   6.027   7.418   4.273 -0.2363 -0.6330  0.7763
 1351DECAN   C813498   5.996   7.327   4.152  0.0595  0.6578 -0.2951
 1351DECAN   C913499   6.097   7.211   4.151 -0.3616  0.2854 -0.1549
 1351DECAN  C1013500   6.024   7.086   4.099  0.1416 -0.1687  0.2195
 1352DECAN   C113501   9.644   4.459  13.762 -0.9197  0.5036 -0.4489
 1352DECAN   C213502   9.752   4.569  13.753 -0.1635 -0.2297 -0.4372
 1352DECAN   C313503   9.704   4.675  13.653 -0.1064  0.3097  0.1034
 1352DECAN   C413504   9.812   4.784  13.641 -0.0203  0.2337  0.1876
 1352DECAN   C513505   9.754   4.903  13.561 -0.6091 -0.2660 -0.1403
 1352DECAN   C613506   9.851   5.020  13.532 -0.5044 -0.2907  0.0971
 1352DECAN   C713507   9.790   5.124  13.436 -0.1448 -0.4242 -0.2787
 1352DECAN   C813508   9.731   5.064  13.308 -0.3170 -0.1894 -0.3106
 1352DECAN   C913509   9.598   5.131  13.269 -0.4122 -0.1890  0.0151
 1352DECAN  C1013510   9.640   5.262  13.200 -0.8780 -0.1355 -0.1718
 1353DECAN   C113511   9.696  10.121   7.789  0.3364 -0.1427  0.0550
 1353DECAN   C213512   9.717  10.035   7.662  0.5897 -0.1650  0.1113
 1353DECAN   C313513   9.708  10.121   7.535 -0.3323 -0.1536  0.1739
 1353DECAN   C413514   9.583  10.210   7.538 -0.0384  0.2717 -0.0401
 1353DECAN   C513515   9.586  10.312   7.422  0.1234  0.0546 -0.2281
 1353DECAN   C613516   9.448  10.374   7.393 -0.0882 -0.2296  0.1535
 1353DECAN   C713517   9.334  10.276   7.358 -0.1345 -0.2336  0.3170
 1353DECAN   C813518   9.219  10.356   7.293 -0.3931 -0.5605  0.3687
 1353DECAN   C913519   9.079  10.292   7.286 -0.3439 -0.6273 -0.0031
 1353DECAN  C1013520   8.977  10.388   7.224  0.4168  0.6132  0.6284
 1354DECAN   C113521  10.425   4.647   8.866 -0.2900 -0.3101 -0.3312
 1354DECAN   C213522  10.291   4.590   8.918 -0.1953 -0.1829  0.0564
 1354DECAN   C313523  10.289   4.465   9.007 -0.3540 -0.6528 -0.5971
 1354DECAN   C413524  10.156   4.422   9.070 -0.2998  0.0292 -0.0141
 1354DECAN   C513525  10.172   4.308   9.172 -0.0455  0.0263 -0.0564
 1354DECAN   C613526  10.041   4.285   9.250  0.0531  0.0864  0.1253
 1354DECAN   C713527  10.035   4.161   9.340 -0.4303 -0.5897 -0.8184
 1354DECAN   C813528   9.914   4.152   9.435 -0.2992  0.0484 -0.5837
 1354DECAN   C913529   9.946   4.047   9.543 -0.3896  0.2489 -0.3622
 1354DECAN  C1013530   9.958   3.904   9.488 -0.3273 -0.0370  0.3795
 1355DECAN   C113531   1.953   8.013  12.640  0.7204  0.2615 -0.2889
 1355DECAN   C213532   1.908   8.004  12.493 -0.0751  0.8065 -0.0889
 1355DECAN   C313533   1.989   7.904  12.408  0.0018  0.4291  0.4244
 1355DECAN   C413534   1.918   7.879  12.273  0.6749 -0.6619  0.2568
 1355DECAN   C513535   1.987   7.776  12.183  0.0848 -0.4412 -0.4588
 1355DECAN   C613536   1.882   7.704  12.096 -0.3195 -0.1797 -0.1881
 1355DECAN   C713537   1.959   7.601  12.011 -0.0253 -0.1371  0.0249
 1355DECAN   C813538   1.868   7.508  11.928  0.1233  0.4477 -0.8061
 1355DECAN   C913539   1.925   7.376  11.874 -0.0746  0.0616 -0.0821
 1355DECAN  C1013540   1.890   7.251  11.958 -0.3913  0.1003 -0.1526
 1356DECAN   C113541   6.148   0.196   5.190  0.9327 -0.0833  0.0294
 1356DECAN   C213542   6.115   0.148   5.332 -0.5253 -0.0223 -0.2701
 1356DECAN   C313543   5.963   0.147   5.355 -0.5197  0.3413 -0.2091
 1356DECAN   C413544   5.914   0.101   5.494 -0.1168  0.4176 -0.0390
 1356DECAN   C513545   5.937  11.195   5.520 -0.0383  0.4104 -0.1505
 1356DECAN   C613546   5.877  11.141   5.651 -0.2955 -0.5262 -0.6420
 1356DECAN   C713547   5.919  10.996   5.679  0.3124 -0.2102  0.1119
 1356DECAN   C813548   5.854  10.936   5.805 -0.5361  0.3444 -0.0525
 1356DECAN   C913549   5.898  11.014   5.930  0.3489  0.0371 -0.1636
 1356DECAN  C1013550   5.828  10.963   6.057 -0.3014  1.0638 -0.0995
 1357DECAN   C113551   5.158  10.463  10.280  0.0073  0.0566 -0.3324
 1357DECAN   C213552   5.039  10.427  10.370 -0.0783  0.4316 -0.2923
 1357DECAN   C313553   5.077  10.444  10.518  0.5953  0.0225 -0.4117
 1357DECAN   C413554   5.016  10.334  10.607  0.2416  0.2145 -0.4131
 1357DECAN   C513555   4.865  10.314  10.588  0.1637  0.1023  0.3005
 1357DECAN   C613556   4.808  10.195  10.669 -0.3632  0.1634  0.0274
 1357DECAN   C713557   4.680  10.121  10.626 -0.1017 -0.2977  0.0349
 1357DECAN   C813558   4.687  10.062  10.484  0.2126 -0.4549  0.1151
 1357DECAN   C913559   4.569   9.964  10.470 -0.2788  0.1044  0.3128
 1357DECAN  C1013560   4.543   9.911  10.328 -0.1301 -0.0842  0.3555
 1358DECAN   C113561  10.582  10.617  12.967 -0.7342  0.0393 -0.4867
 1358DECAN   C213562  10.555  10.473  12.920 -1.1809 -0.1815  0.4066
 1358DECAN   C313563  10.651  10.360  12.963 -0.7440 -0.0508 -0.1987
 1358DECAN   C413564  10.578  10.228  12.932 -0.1972 -0.3768 -0.0924
 1358DECAN   C513565  10.644  10.089  12.939  0.8074  0.0762 -0.3620
 1358DECAN   C613566  10.545   9.983  12.888  0.3254  0.5482 -0.4220
 1358DECAN   C713567  10.485  10.025  12.753  0.2377  0.3200 -0.4540
 1358DECAN   C813568  10.377   9.932  12.693 -0.2786  0.7544 -0.2062
 1358DECAN   C913569  10.240   9.952  12.760 -0.3365 -0.0489 -0.0712
 1358DECAN  C1013570  10.139   9.838  12.741  0.0497 -0.3323 -0.4057
 1359DECAN   C113571   8.404   7.412   8.405  0.1277 -0.6369  0.2235
 1359DECAN   C213572   8.378   7.443   8.256 -0.0355 -0.0536  0.3689
 1359DECAN   C313573   8.403   7.586   8.206  0.3982 -0.2048  0.1476
 1359DECAN   C413574   8.378   7.591   8.054  0.1970  0.2939  0.1945
 1359DECAN   C513575   8.426   7.725   7.995  0.4303  0.1694  0.0993
 1359DECAN   C613576   8.381   7.745   7.848  0.0336  0.1211  0.2115
 1359DECAN   C713577   8.438   7.629   7.764  0.4020  0.5277 -0.1080
 1359DECAN   C813578   8.438   7.666   7.615 -0.1493  0.0667 -0.2265
 1359DECAN   C913579   8.297   7.651   7.555 -0.1724  0.2549 -0.2249
 1359DECAN  C1013580   8.261   7.502   7.572  0.6545  0.1301  0.4653
 1360DECAN   C113581  10.151  11.142   6.451  0.0916  0.2428  0.3905
 1360DECAN   C213582  10.250  11.147   6.569  0.2502 -0.2124  0.2772
 1360DECAN   C313583  10.296  11.018   6.640  0.1234 -0.2127  0.3595
 1360DECAN   C413584  10.415  11.037   6.735  0.3646  0.0302  0.0127
 1360DECAN   C513585  10.358  11.113   6.857  0.1015  0.2021 -0.2152
 1360DECAN   C613586  10.473  11.172   6.941  0.1359  0.3848 -0.3887
 1360DECAN   C713587  10.434   0.054   7.022  0.3363  0.6148 -0.6516
 1360DECAN   C813588  10.534   0.097   7.131  0.0495  0.4516 -0.3241
 1360DECAN   C913589  10.597  11.224   7.208 -0.7153  0.4313  0.2877
 1360DECAN  C1013590  10.699   0.018   7.317 -0.1444  0.1186 -0.1275
 1361DECAN   C113591   4.252   2.764  14.063 -0.0166 -0.0818  0.0451
 1361DECAN   C213592   4.309   2.625  14.027 -0.2238 -0.2328  0.3011
 1361DECAN   C313593   4.213   2.516  13.974 -0.2654 -0.1358  0.1762
 1361DECAN   C413594   4.128   2.560  13.854  0.2883 -0.1861 -0.2412
 1361DECAN   C513595   4.010   2.640  13.913  0.3279 -0.1590 -0.1977
 1361DECAN   C613596   3.905   2.697  13.815  0.1823 -0.7368 -0.3819
 1361DECAN   C713597   3.951   2.816  13.729  0.0241 -0.0451  0.4842
 1361DECAN   C813598   4.032   2.925  13.802  0.5721 -0.2450  0.1792
 1361DECAN   C913599   4.101   3.027  13.710 -0.6634  0.2304 -0.2470
 1361DECAN  C1013600   4.244   3.063  13.756 -0.4556 -0.8334 -0.0378
 1362DECAN   C113601   9.287   4.575  10.329 -0.2317 -0.4425 -0.2532
 1362DECAN   C213602   9.437   4.610  10.334 -0.3372 -0.0593  0.2750
 1362DECAN   C313603   9.467   4.756  10.371  0.0210 -0.0881  0.1030
 1362DECAN   C413604   9.422   4.857  10.263  0.1569 -0.6187 -0.4576
 1362DECAN   C513605   9.442   5.005  10.302 -0.2691 -0.5775 -0.3849
 1362DECAN   C613606   9.402   5.113  10.200 -0.1521 -0.4205 -0.2650
 1362DECAN   C713607   9.257   5.128  10.151 -0.1184  0.1888 -0.1830
 1362DECAN   C813608   9.237   5.168  10.004  0.2331  0.1534 -0.2404
 1362DECAN   C913609   9.086   5.198   9.990 -0.0313 -1.0572 -0.0789
 1362DECAN  C1013610   9.030   5.280  10.107  0.0911 -0.4372 -0.4513
 1363DECAN   C113611   7.045   1.783  10.382  0.1244 -0.2899 -0.0436
 1363DECAN   C213612   6.936   1.816  10.278  0.1473 -0.1143 -0.0117
 1363DECAN   C313613   6.943   1.744  10.142 -0.3668 -0.3467  0.0812
 1363DECAN   C413614   6.826   1.789  10.053 -0.2562  0.4366  0.3271
 1363DECAN   C513615   6.688   1.760  10.114  0.0253  0.0310  0.7810
 1363DECAN   C613616   6.580   1.723  10.010  0.1852 -0.0226  0.6344
 1363DECAN   C713617   6.439   1.722  10.070 -0.0661  0.4465  0.0545
 1363DECAN   C813618   6.325   1.688   9.971 -0.0608  0.6132 -0.0100
 1363DECAN   C913619   6.314   1.791   9.858  0.1334  0.3422 -0.2769
 1363DECAN  C1013620   6.451   1.801   9.789  0.1581 -0.4329 -0.3488
 1364DECAN   C113621   3.301   4.226  14.086  0.0194 -0.1671  0.3893
 1364DECAN   C213622   3.300   4.348  13.992  0.6193 -0.3453  0.1466
 1364DECAN   C313623   3.234   4.323  13.855  0.7170  0.1369  0.0115
 1364DECAN   C413624   3.301   4.214  13.770  0.0598 -0.2019 -0.0781
 1364DECAN   C513625   3.196   4.171  13.666 -0.3318 -0.1020  0.2733
 1364DECAN   C613626   3.142   4.282  13.574  0.0605 -0.1396 -0.0022
 1364DECAN   C713627   3.120   4.413  13.651 -0.0643 -0.0758 -0.1486
 1364DECAN   C813628   3.040   4.517  13.569  0.2648 -0.0548 -0.4477
 1364DECAN   C913629   3.105   4.556  13.435  0.0274  0.7909 -0.3220
 1364DECAN  C1013630   3.231   4.641  13.458  0.2965  0.2715  0.1532
 1365DECAN   C113631   4.910   4.327  11.704  0.4947  0.0630 -0.5187
 1365DECAN   C213632   4.985   4.273  11.580  0.3916 -0.3769 -0.3937
 1365DECAN   C313633   5.091   4.378  11.540 -0.0153 -0.0288 -0.5762
 1365DECAN   C413634   5.028   4.514  11.506 -0.5441 -0.1341 -0.0351
 1365DECAN   C513635   4.935   4.515  11.383 -0.2147 -0.3449 -0.2863
 1365DECAN   C613636   4.806   4.435  11.408 -0.2200 -0.3434 -0.3090
 1365DECAN   C713637   4.724   4.441  11.279  0.0338 -0.2153 -0.4658
 1365DECAN   C813638   4.640   4.317  11.243 -0.5864  0.1609 -0.3302
 1365DECAN   C913639   4.599   4.237  11.368 -0.3483 -0.1915 -0.4766
 1365DECAN  C1013640   4.685   4.118  11.414  0.0207  0.2317 -0.0739
 1366DECAN   C113641   1.484   7.139  10.200 -0.2677 -0.4732 -0.0450
 1366DECAN   C213642   1.430   7.213  10.324  0.0776 -0.4146  0.0738
 1366DECAN   C313643   1.428   7.367  10.329  0.3784 -0.3899 -0.4928
 1366DECAN   C413644   1.330   7.444  10.238  0.3856  0.2467  0.0287
 1366DECAN   C513645   1.356   7.595  10.228 -0.0898  0.3214 -0.0743
 1366DECAN   C613646   1.262   7.658  10.123 -0.1315 -0.2260 -0.3645
 1366DECAN   C713647   1.260   7.812  10.118  0.0134 -0.1848  0.7064
 1366DECAN   C813648   1.240   7.882  10.254  0.0702  0.2264  0.5039
 1366DECAN   C913649   1.259   8.033  10.235 -0.7730  0.3016  0.2266
 1366DECAN  C1013650   1.393   8.069  10.168 -0.3810 -0.1892  0.7440
 1367DECAN   C113651   3.821   0.741   5.628  0.3079 -0.5184  0.3313
 1367DECAN   C213652   3.878   0.869   5.690 -0.3189  0.1013 -0.3474
 1367DECAN   C313653   4.011   0.925   5.636  0.0001 -0.1675  0.1514
 1367DECAN   C413654   4.070   1.046   5.711  0.0283 -0.4343  0.5619
 1367DECAN   C513655   4.075   1.026   5.864  0.5341 -0.8151  0.4986
 1367DECAN   C613656   3.936   1.032   5.929  0.1740 -0.6595 -0.2810
 1367DECAN   C713657   3.943   1.015   6.082  0.3679 -0.1903 -0.2358
 1367DECAN   C813658   3.812   0.998   6.160  0.6423 -0.6857  0.1208
 1367DECAN   C913659   3.717   0.914   6.072  0.5477 -0.5105  0.0552
 1367DECAN  C1013660   3.623   0.824   6.153  0.3625 -0.1918  0.1951
 1368DECAN   C113661   7.658   1.932   4.416 -0.0264  0.6790 -0.4320
 1368DECAN   C213662   7.778   1.838   4.398 -0.1063  0.4719  0.0871
 1368DECAN   C313663   7.890   1.835   4.503  0.2796  0.2202 -0.3260
 1368DECAN   C413664   8.002   1.730   4.490 -0.0902 -0.1231 -0.7422
 1368DECAN   C513665   8.094   1.717   4.612 -0.1521  0.2463 -0.6563
 1368DECAN   C613666   8.189   1.596   4.625 -0.1782  0.3122  0.2659
 1368DECAN   C713667   8.264   1.594   4.759 -0.1621  0.6160  0.2636
 1368DECAN   C813668   8.355   1.471   4.778 -0.7045  0.1355 -0.2254
 1368DECAN   C913669   8.444   1.481   4.903 -0.1460  0.3115 -0.6299
 1368DECAN  C1013670   8.524   1.611   4.916  0.2263  0.0285 -0.0337
 1369DECAN   C113671   9.730   3.080   5.184 -0.2214  0.4289 -0.2666
 1369DECAN   C213672   9.605   3.060   5.096 -0.1195 -0.2743 -0.2623
 1369DECAN   C313673   9.622   3.131   4.961 -0.6145 -0.0526 -0.2137
 1369DECAN   C413674   9.585   3.280   4.971 -0.5754 -0.0122 -0.6529
 1369DECAN   C513675   9.605   3.388   4.863  0.3147  0.5194  0.0361
 1369DECAN   C613676   9.520   3.351   4.740  0.4813 -0.2758  0.1556
 1369DECAN   C713677   9.580   3.436   4.626  0.2856 -0.2103  0.1010
 1369DECAN   C813678   9.526   3.399   4.487  0.8667 -0.2786 -0.1102
 1369DECAN   C913679   9.618   3.442   4.371  0.0097  0.0712 -0.6742
 1369DECAN  C1013680   9.754   3.370   4.379  0.0377  0.1812 -0.1453
 1370DECAN   C113681   4.227   4.644   5.359  0.3746  0.2755 -0.2247
 1370DECAN   C213682   4.076   4.650   5.388  0.3805 -0.2680 -0.0713
 1370DECAN   C313683   4.026   4.537   5.479  0.0494  0.3735  0.5583
 1370DECAN   C413684   3.886   4.547   5.543 -0.0566  0.3848  0.3266
 1370DECAN   C513685   3.792   4.582   5.426  0.1464  0.2528  0.1252
 1370DECAN   C613686   3.817   4.703   5.334 -0.4911  0.2669 -0.0282
 1370DECAN   C713687   3.695   4.735   5.245 -0.1338  0.8117 -0.3258
 1370DECAN   C813688   3.729   4.851   5.150  0.3464  0.6934 -0.3007
 1370DECAN   C913689   3.868   4.847   5.084  0.3394  0.4837 -0.3006
 1370DECAN  C1013690   3.906   4.718   5.009  0.2505  0.1707  0.1828
 1371DECAN   C113691   7.444  10.163  10.196 -0.0361 -0.1720  0.3736
 1371DECAN   C213692   7.533  10.039  10.221  0.4654  0.0591 -0.2488
 1371DECAN   C313693   7.629  10.003  10.106  0.7112 -0.3615  0.0876
 1371DECAN   C413694   7.747  10.099  10.080  0.2606  0.0409 -0.4973
 1371DECAN   C513695   7.850  10.035   9.986  0.3373 -0.5479 -0.0243
 1371DECAN   C613696   7.986  10.107   9.992 -0.0359  0.1388  0.2499
 1371DECAN   C713697   8.049  10.146   9.857 -0.1457  0.5020  0.3008
 1371DECAN   C813698   8.190  10.205   9.875  0.3064 -0.3551 -0.2878
 1371DECAN   C913699   8.236  10.252   9.736  0.1062  0.1377 -0.1904
 1371DECAN  C1013700   8.384  10.291   9.749 -0.0274  0.6276 -0.1044
 1372DECAN   C113701  10.739   6.914  13.371 -0.1496  0.6634  0.4682
 1372DECAN   C213702  10.741   6.764  13.405 -0.2874  0.6183  0.2801
 1372DECAN   C313703  10.604   6.702  13.436  0.1685 -0.5726 -0.0431
 1372DECAN   C413704  10.603   6.549  13.451 -0.1568 -0.5454  0.2201
 1372DECAN   C513705  10.462   6.487  13.457 -0.1917 -0.4684  0.1931
 1372DECAN   C613706  10.457   6.347  13.522 -0.0294 -0.4678  0.2065
 1372DECAN   C713707  10.314   6.313  13.567 -0.0049 -0.2210  0.4770
 1372DECAN   C813708  10.307   6.180  13.645 -0.3980 -0.7651 -0.4645
 1372DECAN   C913709  10.164   6.140  13.683 -0.3354 -0.4254  0.1454
 1372DECAN  C1013710  10.140   6.002  13.748 -0.7473 -0.2041  0.4682
 1373DECAN   C113711   3.320   7.853   8.387  0.1033 -0.1451 -0.2125
 1373DECAN   C213712   3.307   7.971   8.289  0.4181  0.0142 -0.0669
 1373DECAN   C313713   3.425   7.977   8.191  0.5224 -0.2695  0.0415
 1373DECAN   C413714   3.377   8.086   8.093  0.3931  0.7287  1.1882
 1373DECAN   C513715   3.482   8.105   7.982 -0.5104  0.0718  0.1989
 1373DECAN   C613716   3.459   8.236   7.904 -0.1764 -0.2106 -0.3786
 1373DECAN   C713717   3.401   8.355   7.981  0.6254 -0.1276  0.1084
 1373DECAN   C813718   3.370   8.474   7.888 -0.1064  0.2067  0.7657
 1373DECAN   C913719   3.249   8.449   7.796  0.7845 -0.0477 -0.3534
 1373DECAN  C1013720   3.226   8.565   7.697  0.1958  0.0556 -0.0984
 1374DECAN   C113721   8.303   7.684   8.955  0.0214 -0.0106  0.0972
 1374DECAN   C213722   8.271   7.819   9.020  0.2850  0.1206 -0.0437
 1374DECAN   C313723   8.380   7.928   9.012  0.2579  0.1298 -0.2765
 1374DECAN   C413724   8.368   7.996   8.874  0.5518  0.8139  0.0286
 1374DECAN   C513725   8.247   8.092   8.874 -0.1210 -0.0238 -0.2546
 1374DECAN   C613726   8.223   8.170   8.744 -0.5256  0.2630 -0.0091
 1374DECAN   C713727   8.129   8.292   8.755 -0.5958  0.2350 -0.2947
 1374DECAN   C813728   7.987   8.241   8.782 -0.0193 -0.7711  0.9140
 1374DECAN   C913729   7.880   8.350   8.803  0.2798 -0.3399  0.1771
 1374DECAN  C1013730   7.736   8.301   8.782  0.3988 -0.4423 -0.4420
 1375DECAN   C113731   2.906   2.309  13.669  0.5923 -0.1799  0.0884
 1375DECAN   C213732   2.888   2.216  13.791 -0.2908 -0.3617 -0.1707
 1375DECAN   C313733   2.956   2.242  13.926 -0.0333 -0.4552 -0.2805
 1375DECAN   C413734   2.918   2.141  14.036 -0.6200  0.1868  0.1166
 1375DECAN   C513735   2.770   2.138  14.080 -0.8958 -0.1209 -0.8122
 1375DECAN   C613736   2.718   2.019  14.162  0.1838  0.2518  0.4573
 1375DECAN   C713737   2.564   2.018  14.156  0.1948  0.4893  0.0794
 1375DECAN   C813738   2.516   1.890  14.226  0.0447  0.2294 -0.4939
 1375DECAN   C913739   2.401   1.912  14.327  0.3059  0.5154 -0.2573
 1375DECAN  C1013740   2.367   1.791  14.416  0.5333  0.4635 -0.2383
 1376DECAN   C113741   3.792   5.524   9.947  0.3224 -0.1175  0.3260
 1376DECAN   C213742   3.763   5.429   9.829 -0.1364  0.0069  0.3351
 1376DECAN   C313743   3.613   5.430   9.796 -0.0387  0.1315 -0.1234
 1376DECAN   C413744   3.581   5.394   9.650 -0.1901 -0.3024  0.0141
 1376DECAN   C513745   3.428   5.413   9.637 -0.3368 -1.0091  0.6228
 1376DECAN   C613746   3.350   5.369   9.512  0.2215  0.3833 -0.2386
 1376DECAN   C713747   3.224   5.450   9.476 -0.0670  0.1940  0.3359
 1376DECAN   C813748   3.145   5.398   9.355 -0.3421 -0.0828  0.6327
 1376DECAN   C913749   3.055   5.504   9.288  0.2940 -0.1059 -0.2728
 1376DECAN  C1013750   3.070   5.514   9.135  0.3274  0.1217 -0.2551
 1377DECAN   C113751   3.227   1.715  14.672  0.1568 -0.1278  0.4485
 1377DECAN   C213752   3.262   1.827  14.771  0.0860  0.2184  0.0862
 1377DECAN   C313753   3.402   1.892  14.774 -0.0362  0.5375 -0.8771
 1377DECAN   C413754   3.416   1.985  14.896  0.4809 -0.1374 -0.4140
 1377DECAN   C513755   3.556   2.033  14.941  0.0725  0.0869  0.6503
 1377DECAN   C613756   3.656   2.074  14.831 -0.2284  0.1685  0.4044
 1377DECAN   C713757   3.794   2.105  14.891 -0.1335  0.5031  0.0133
 1377DECAN   C813758   3.892   2.169  14.791 -0.0545  0.0103 -0.2260
 1377DECAN   C913759   3.921   2.072  14.675  0.2287 -0.4457  0.2246
 1377DECAN  C1013760   3.999   2.138  14.560 -0.1298 -0.4476 -0.0206
 1378DECAN   C113761   9.893   7.465   6.361 -0.4724 -0.1478 -0.0706
 1378DECAN   C213762   9.921   7.327   6.423  0.0948 -0.0242 -0.0471
 1378DECAN   C313763   9.789   7.248   6.436  0.3535 -0.4497  0.0006
 1378DECAN   C413764   9.815   7.106   6.490 -0.3520 -0.5872 -0.0118
 1378DECAN   C513765   9.696   7.010   6.475 -0.3028 -0.5652 -0.5617
 1378DECAN   C613766   9.686   6.904   6.586 -0.2481  0.1427  0.1347
 1378DECAN   C713767   9.803   6.803   6.587 -0.1662  0.2340 -0.1243
 1378DECAN   C813768   9.782   6.694   6.693  0.0353 -0.0465 -0.3730
 1378DECAN   C913769   9.658   6.607   6.663  0.0400  0.0458 -0.6636
 1378DECAN  C1013770   9.673   6.512   6.543  0.3936 -0.3321 -0.3238
 1379DECAN   C113771   4.310   7.234   5.419  0.4478 -0.1644  0.1872
 1379DECAN   C213772   4.189   7.198   5.507 -0.0260  0.0440 -0.3727
 1379DECAN   C313773   4.077   7.125   5.431  0.1317 -0.5004 -0.0838
 1379DECAN   C413774   3.975   7.040   5.508  0.3614 -0.4297  0.3007
 1379DECAN   C513775   3.902   6.940   5.416  0.0368 -0.0631  0.1565
 1379DECAN   C613776   4.007   6.853   5.345 -0.1732  0.1666 -0.4405
 1379DECAN   C713777   4.096   6.759   5.428 -0.0871  0.3422 -0.3337
 1379DECAN   C813778   4.174   6.640   5.369  0.2344 -0.0130  0.7663
 1379DECAN   C913779   4.083   6.532   5.309  0.5747 -0.0189  0.2504
 1379DECAN  C1013780   4.136   6.411   5.229 -0.3442  0.0091 -0.4258
 1380DECAN   C113781   9.148   4.830  14.145  0.5683 -0.8453 -0.3696
 1380DECAN   C213782   9.115   4.763  14.010 -0.0401 -0.3289 -0.4827
 1380DECAN   C313783   8.964   4.771  13.983 -0.2012 -0.3452  0.3786
 1380DECAN   C413784   8.887   4.681  14.082 -0.6613 -0.0397  0.3025
 1380DECAN   C513785   8.924   4.532  14.081  0.4958  0.2333  0.3819
 1380DECAN   C613786   8.803   4.444  14.120  0.5962 -0.5204 -0.9571
 1380DECAN   C713787   8.673   4.462  14.040  0.2544  0.4275 -0.2067
 1380DECAN   C813788   8.595   4.329  14.031  0.5908  0.2070  0.1640
 1380DECAN   C913789   8.517   4.292  14.159  0.5691 -0.2224  0.0280
 1380DECAN  C1013790   8.430   4.166  14.144  0.0262  0.1258  0.2186
 1381DECAN   C113791   6.668   7.664   8.669  0.2860 -0.6454 -0.2541
 1381DECAN   C213792   6.662   7.671   8.823  0.1178  0.6310 -0.3051
 1381DECAN   C313793   6.774   7.592   8.893 -0.4922 -0.3440 -0.4091
 1381DECAN   C413794   6.775   7.635   9.041 -0.0683 -0.1246 -0.4751
 1381DECAN   C513795   6.875   7.561   9.132 -0.4062  0.3574  0.3047
 1381DECAN   C613796   6.882   7.624   9.272  0.6695  0.2776  0.2883
 1381DECAN   C713797   6.740   7.649   9.324  0.5120  0.1313 -0.0669
 1381DECAN   C813798   6.726   7.738   9.449  0.3399 -0.3310  0.2474
 1381DECAN   C913799   6.773   7.668   9.578  0.2408 -0.1902  0.3596
 1381DECAN  C1013800   6.693   7.542   9.614  0.1876 -0.3391 -0.2762
 1382DECAN   C113801   3.163   7.419  13.791 -0.0843  0.1606  0.5625
 1382DECAN   C213802   3.106   7.293  13.861 -0.1920  0.2484  0.6323
 1382DECAN   C313803   2.980   7.235  13.795  0.0863  0.2727  0.0690
 1382DECAN   C413804   2.944   7.102  13.864 -0.0334  0.1029 -0.3138
 1382DECAN   C513805   2.831   7.030  13.789  0.1086 -0.5837  0.1235
 1382DECAN   C613806   2.778   6.898  13.850 -0.6356  0.0162  0.7870
 1382DECAN   C713807   2.638   6.868  13.793 -0.3714  0.1488  0.0544
 1382DECAN   C813808   2.576   6.729  13.816  0.5755 -0.3201 -0.1792
 1382DECAN   C913809   2.425   6.738  13.786  0.5623  0.1729  0.0257
 1382DECAN  C1013810   2.353   6.603  13.806  0.1582  0.4548  0.4947
 1383DECAN   C113811   3.346   1.467   4.663  0.4913 -0.6122 -0.2828
 1383DECAN   C213812   3.238   1.413   4.567 -0.2091  0.6779 -0.2413
 1383DECAN   C313813   3.119   1.339   4.633  0.1271  0.2538 -0.1058
 1383DECAN   C413814   3.020   1.424   4.715  0.1698  0.2277 -0.0263
 1383DECAN   C513815   2.911   1.334   4.778  0.0440  0.3744 -0.0340
 1383DECAN   C613816   2.793   1.405   4.846 -0.1880  0.0986 -0.1496
 1383DECAN   C713817   2.674   1.319   4.894  0.4038 -0.6720 -0.0569
 1383DECAN   C813818   2.684   1.246   5.029  0.0650 -0.3333  0.1517
 1383DECAN   C913819   2.549   1.173   5.044 -0.4426  0.5730  0.0745
 1383DECAN  C1013820   2.575   1.030   5.095 -0.4298  0.2417 -0.8419
 1384DECAN   C113821   6.719   5.889   4.809  0.2859 -0.2098 -0.0717
 1384DECAN   C213822   6.568   5.856   4.804  0.3475 -0.5033 -0.0344
 1384DECAN   C313823   6.537   5.718   4.862  0.0880 -0.1724  0.6245
 1384DECAN   C413824   6.615   5.606   4.790 -0.3968  0.0757 -0.3025
 1384DECAN   C513825   6.537   5.473   4.793 -0.3549  0.0583  0.0562
 1384DECAN   C613826   6.586   5.374   4.686  0.1914 -0.1398  0.4844
 1384DECAN   C713827   6.731   5.322   4.687  0.2559  0.0225  0.0054
 1384DECAN   C813828   6.759   5.212   4.584 -0.3341 -0.2205  0.1007
 1384DECAN   C913829   6.675   5.088   4.620 -0.3729 -0.1112  0.3906
 1384DECAN  C1013830   6.720   4.961   4.546  0.1500  0.3355 -0.0677
 1385DECAN   C113831   5.227   7.109   3.859  0.5564 -0.0739  0.1697
 1385DECAN   C213832   5.304   7.050   3.980  0.4664 -0.6318 -0.0392
 1385DECAN   C313833   5.219   6.954   4.065  0.0724 -0.3954 -0.1582
 1385DECAN   C413834   5.294   6.871   4.171 -0.5432  0.0414  0.6300
 1385DECAN   C513835   5.376   6.957   4.269  0.0404  0.1927  0.0146
 1385DECAN   C613836   5.459   6.868   4.362  0.2064  0.5212  0.1817
 1385DECAN   C713837   5.525   6.934   4.485 -0.5771  0.4300  0.6599
 1385DECAN   C813838   5.618   6.843   4.567 -0.0482  0.6960  0.3607
 1385DECAN   C913839   5.763   6.844   4.514 -0.0714 -0.6798  0.2504
 1385DECAN  C1013840   5.794   6.762   4.387  0.2484 -0.6460  0.3076
 1386DECAN   C113841   6.272   3.580   9.515  0.1969  0.3853 -0.1428
 1386DECAN   C213842   6.162   3.492   9.453  0.4789  0.1627 -0.3304
 1386DECAN   C313843   6.048   3.566   9.381  0.3320 -0.1646 -0.4383
 1386DECAN   C413844   5.905   3.508   9.388  0.5132 -0.6273 -0.5637
 1386DECAN   C513845   5.795   3.584   9.313  0.2213 -0.3118  0.1757
 1386DECAN   C613846   5.759   3.721   9.374  0.0465 -0.0301 -0.5450
 1386DECAN   C713847   5.632   3.787   9.318 -0.2720 -0.1714  0.0085
 1386DECAN   C813848   5.660   3.883   9.201 -0.4646 -0.4860 -0.2986
 1386DECAN   C913849   5.535   3.943   9.134 -0.3054  0.4102  0.1904
 1386DECAN  C1013850   5.569   4.018   9.004 -1.0103  0.2393 -0.0972
 1387DECAN   C113851   6.023  11.062  10.883  0.3542  0.2670 -0.0134
 1387DECAN   C213852   5.938  11.164  10.805 -0.0620  0.0517  0.1526
 1387DECAN   C313853   5.807  11.105  10.751  0.1693 -0.0215 -0.3303
 1387DECAN   C413854   5.736  11.179  10.636 -0.1880  0.1538  0.0014
 1387DECAN   C513855   5.623  11.090  10.581 -0.2664  0.0021  0.4028
 1387DECAN   C613856   5.493  11.074  10.661 -0.1544 -0.5471  0.4774
 1387DECAN   C713857   5.368  11.058  10.573 -0.1706 -0.0479  0.4074
 1387DECAN   C813858   5.237  11.039  10.653 -0.0709  0.0285  0.5883
 1387DECAN   C913859   5.123  11.020  10.552  0.3607  0.4081  0.0259
 1387DECAN  C1013860   5.055  11.147  10.496 -0.1173  0.1873  0.1032
 1388DECAN   C113861   8.163   1.493  14.461  0.0904  0.1987 -0.1044
 1388DECAN   C213862   8.255   1.506  14.583  0.2600  0.2831 -0.2398
 1388DECAN   C313863   8.266   1.654  14.624 -0.1456  0.1337  0.4220
 1388DECAN   C413864   8.357   1.698  14.740 -0.1413 -0.1951  0.5447
 1388DECAN   C513865   8.325   1.649  14.883 -0.0233 -0.8183  0.3594
 1388DECAN   C613866   8.183   1.678  14.935  0.1318  0.3164  0.1663
 1388DECAN   C713867   8.070   1.611  14.855  0.1933 -0.2291  0.5279
 1388DECAN   C813868   7.933   1.592  14.921  0.0649 -0.6981  0.1364
 1388DECAN   C913869   7.834   1.522  14.826 -0.3651  0.7537 -0.5128
 1388DECAN  C1013870   7.685   1.508  14.862 -0.1939 -0.0700 -0.1028
 1389DECAN   C113871   6.400  10.049   5.161  0.4159 -0.2297  0.7556
 1389DECAN   C213872   6.514   9.977   5.087  0.2166  0.2137  0.0015
 1389DECAN   C313873   6.487   9.978   4.936 -0.1837 -0.7711  0.0613
 1389DECAN   C413874   6.589   9.910   4.843  0.2095 -0.2504  0.1110
 1389DECAN   C513875   6.721   9.985   4.871  0.3482 -0.6602  0.5731
 1389DECAN   C613876   6.837   9.951   4.775  0.2187 -0.2463  0.2647
 1389DECAN   C713877   6.955  10.048   4.794 -0.3254  0.3742  0.5019
 1389DECAN   C813878   7.045  10.068   4.670 -0.2615 -0.5740  0.3917
 1389DECAN   C913879   7.185  10.127   4.694 -0.5164  0.2381 -0.0926
 1389DECAN  C1013880   7.262  10.169   4.567  0.1564 -0.1932  0.1639
 1390DECAN   C113881   1.395   0.841  11.993  0.3311 -0.5051  0.6192
 1390DECAN   C213882   1.511   0.870  11.895  0.0044  0.1331  0.4131
 1390DECAN   C313883   1.550   1.017  11.875  0.1026 -0.0304 -0.6771
 1390DECAN   C413884   1.632   1.033  11.745  0.6509 -0.3563 -0.3763
 1390DECAN   C513885   1.664   1.176  11.700  0.1050 -0.0908  0.0685
 1390DECAN   C613886   1.765   1.251  11.788 -0.2826  0.2633  0.2178
 1390DECAN   C713887   1.812   1.386  11.730  0.1210  0.0405  0.0247
 1390DECAN   C813888   1.889   1.458  11.841  0.3653 -0.1540 -0.0170
 1390DECAN   C913889   1.905   1.606  11.802 -0.0762 -0.4220 -1.2369
 1390DECAN  C1013890   1.780   1.697  11.791 -0.1184 -0.3407 -0.1447
 1391DECAN   C113891   9.182   6.229   6.688 -0.1098  0.1323 -0.6171
 1391DECAN   C213892   9.241   6.144   6.574  0.4370  0.3957 -0.5337
 1391DECAN   C313893   9.385   6.189   6.545  0.4999  0.0617 -0.7456
 1391DECAN   C413894   9.468   6.101   6.449  0.2531 -0.9733 -0.0196
 1391DECAN   C513895   9.438   6.108   6.299 -0.8282 -0.3631  0.2133
 1391DECAN   C613896   9.491   5.985   6.221 -0.1643 -0.0789  0.2132
 1391DECAN   C713897   9.499   5.991   6.068 -0.0824  0.1023  0.2238
 1391DECAN   C813898   9.582   5.880   6.001 -0.0802 -0.0317  0.4516
 1391DECAN   C913899   9.621   5.915   5.856  0.1203 -0.1968  0.4638
 1391DECAN  C1013900   9.703   5.806   5.786  0.1574 -0.3768  0.7817
 1392DECAN   C113901   5.951   6.067   8.398 -0.2372 -0.2159 -0.2938
 1392DECAN   C213902   5.951   5.921   8.446  0.0755 -0.1577 -0.1148
 1392DECAN   C313903   6.012   5.834   8.335  0.0038 -0.2893 -0.0510
 1392DECAN   C413904   6.157   5.885   8.325 -0.1339  0.1411  0.1552
 1392DECAN   C513905   6.258   5.779   8.279 -0.2129  0.3166 -0.4243
 1392DECAN   C613906   6.246   5.719   8.137  0.5171 -0.1809 -0.2836
 1392DECAN   C713907   6.350   5.611   8.103  0.0922 -0.8358  0.4368
 1392DECAN   C813908   6.494   5.666   8.095 -0.3637  0.3075 -0.2350
 1392DECAN   C913909   6.546   5.708   8.234 -0.2342 -0.4437 -0.0499
 1392DECAN  C1013910   6.689   5.765   8.227 -0.3457 -0.1725 -0.1473
 1393DECAN   C113911   1.286   6.563  11.037  0.3218 -0.0200 -0.4387
 1393DECAN   C213912   1.368   6.573  10.908 -0.3704  0.5017 -0.8482
 1393DECAN   C313913   1.433   6.447  10.847  0.8045  0.2948  0.7581
 1393DECAN   C413914   1.514   6.487  10.723 -0.0419  0.4536  0.2451
 1393DECAN   C513915   1.569   6.360  10.656 -0.3328  0.3350  0.2332
 1393DECAN   C613916   1.659   6.386  10.534 -0.0146 -0.0924  0.3730
 1393DECAN   C713917   1.748   6.274  10.477  0.2486  0.3873 -0.1780
 1393DECAN   C813918   1.809   6.289  10.337 -0.2580  0.5031 -0.3889
 1393DECAN   C913919   1.929   6.198  10.305  0.0790  0.7767  0.0782
 1393DECAN  C1013920   1.968   6.200  10.156  0.3171  0.1721  0.1288
 1394DECAN   C113921   6.996   6.753  12.280 -0.7518  0.1362  0.4216
 1394DECAN   C213922   7.056   6.873  12.355 -0.1147  0.1633 -0.1235
 1394DECAN   C313923   7.010   6.895  12.500 -0.4529  0.0027 -0.2051
 1394DECAN   C413924   7.072   7.012  12.578 -0.2567 -0.1215 -0.1732
 1394DECAN   C513925   7.006   7.015  12.718  0.2961 -0.1625  0.0901
 1394DECAN   C613926   7.056   7.137  12.797  0.1286 -0.0471  0.0157
 1394DECAN   C713927   7.023   7.113  12.946  0.2900  0.1426  0.0824
 1394DECAN   C813928   7.102   7.214  13.032  0.5512  0.2163 -0.2403
 1394DECAN   C913929   7.068   7.360  12.997  0.1785  0.1569 -0.1343
 1394DECAN  C1013930   7.145   7.458  13.087 -0.4038  0.4644  0.0302
 1395DECAN   C113931   7.539   6.511   5.058 -0.2573  0.2024 -0.3986
 1395DECAN   C213932   7.479   6.583   4.936  0.0601  0.0401 -0.6511
 1395DECAN   C313933   7.571   6.704   4.910  0.0164  0.1872 -0.1275
 1395DECAN   C413934   7.519   6.783   4.788  0.0505  0.2462 -0.1037
 1395DECAN   C513935   7.610   6.901   4.750  0.0530  0.2524 -0.0794
 1395DECAN   C613936   7.564   6.962   4.616  0.0769  0.4838  0.0179
 1395DECAN   C713937   7.666   7.048   4.540  0.4713  0.3091  0.3405
 1395DECAN   C813938   7.630   7.075   4.392 -0.7213 -0.8842  0.3921
 1395DECAN   C913939   7.490   7.128   4.355 -0.0696  0.3979 -0.2922
 1395DECAN  C1013940   7.467   7.129   4.203 -0.2556 -0.0619 -0.2674
 1396DECAN   C113941   4.873   8.978   5.274  0.1200 -0.2086  0.0867
 1396DECAN   C213942   4.897   9.127   5.304  0.1767 -0.2303  0.1517
 1396DECAN   C313943   4.824   9.172   5.432 -0.1809 -0.0852 -0.1001
 1396DECAN   C413944   4.876   9.312   5.471  0.1584 -0.1867 -0.1813
 1396DECAN   C513945   4.836   9.380   5.603  0.2169 -0.0749 -0.2205
 1396DECAN   C613946   4.838   9.284   5.724  0.3864  0.0594 -0.1179
 1396DECAN   C713947   4.758   9.155   5.698 -0.0130  0.2527  0.1468
 1396DECAN   C813948   4.611   9.175   5.739 -0.2212 -0.1675 -0.3933
 1396DECAN   C913949   4.525   9.047   5.733  0.0548 -0.3581 -0.3709
 1396DECAN  C1013950   4.522   8.987   5.591 -0.2721  0.5419 -0.7537
 1397DECAN   C113951   2.964  10.685  12.796  0.0502 -0.4324  0.1043
 1397DECAN   C213952   2.968  10.734  12.942  0.5058 -0.0580 -0.0310
 1397DECAN   C313953   2.839  10.688  13.013  0.3679  0.7015  0.2161
 1397DECAN   C413954   2.824  10.742  13.157  0.3686  0.5259  0.2826
 1397DECAN   C513955   2.916  10.682  13.264 -0.1710 -1.1681 -0.1730
 1397DECAN   C613956   3.069  10.704  13.260 -0.3040 -0.2290 -0.1867
 1397DECAN   C713957   3.140  10.658  13.388  0.2036  0.0363 -0.3676
 1397DECAN   C813958   3.292  10.648  13.368  0.3016  0.1555  0.2907
 1397DECAN   C913959   3.369  10.635  13.501  0.7951 -0.2990 -0.0341
 1397DECAN  C1013960   3.305  10.534  13.597  0.3200 -0.1409 -0.1808
 1398DECAN   C113961   4.488   5.573  10.938  0.3877  0.1663 -0.4548
 1398DECAN   C213962   4.361   5.487  10.929  0.4146  0.0435  0.2974
 1398DECAN   C313963   4.274   5.475  11.056 -0.1695  0.0528 -0.1000
 1398DECAN   C413964   4.303   5.344  11.130  0.5222  0.3249  0.1148
 1398DECAN   C513965   4.256   5.347  11.277 -0.0355 -0.4642 -0.0381
 1398DECAN   C613966   4.305   5.213  11.335  0.5731 -0.2933 -0.1467
 1398DECAN   C713967   4.211   5.105  11.279  0.0617  0.1093 -0.0689
 1398DECAN   C813968   4.260   4.959  11.285 -0.0024  0.0993  0.2074
 1398DECAN   C913969   4.156   4.866  11.220  0.1202 -0.1870  0.4205
 1398DECAN  C1013970   4.229   4.742  11.164 -0.2191 -0.2890  0.1992
 1399DECAN   C113971   6.446   5.718   7.396  0.6262 -0.1506  0.0099
 1399DECAN   C213972   6.400   5.604   7.303 -0.0128  0.1260 -0.0185
 1399DECAN   C313973   6.330   5.489   7.379 -0.0234  0.5069  0.5525
 1399DECAN   C413974   6.195   5.529   7.442 -0.6251 -0.2538 -0.2384
 1399DECAN   C513975   6.188   5.632   7.556 -0.3268 -0.0371 -0.4129
 1399DECAN   C613976   6.049   5.659   7.616 -0.3263 -0.3229 -0.2819
 1399DECAN   C713977   6.059   5.739   7.747  0.2917  0.2990 -0.7012
 1399DECAN   C813978   5.919   5.739   7.812  0.6823 -0.2962  0.1514
 1399DECAN   C913979   5.921   5.780   7.961 -0.2814  0.3245 -0.0020
 1399DECAN  C1013980   5.783   5.780   8.029 -0.2018  0.3528  0.1604
 1400DECAN   C113981   5.086   0.958   9.485  0.0671  0.0516 -0.2698
 1400DECAN   C213982   5.162   1.075   9.550  0.1695 -0.1043 -0.1072
 1400DECAN   C313983   5.182   1.197   9.458  0.4684 -0.0781 -0.0081
 1400DECAN   C413984   5.262   1.312   9.523  0.1821  0.0967  0.0351
 1400DECAN   C513985   5.260   1.432   9.427 -0.1726  0.1011  0.0482
 1400DECAN   C613986   5.330   1.396   9.294  0.5134 -0.0056  0.4339
 1400DECAN   C713987   5.366   1.523   9.215 -0.4433 -0.0752 -0.1337
 1400DECAN   C813988   5.375   1.518   9.061 -0.1836  0.6791 -0.1474
 1400DECAN   C913989   5.341   1.649   8.988 -0.7533  0.5049 -0.1985
 1400DECAN  C1013990   5.341   1.639   8.834 -0.4784  0.9724 -0.2317
 1401DECAN   C113991   2.057   0.925   8.531  0.9300  0.5343 -0.1698
 1401DECAN   C213992   2.139   0.913   8.660  0.1999 -0.1400  0.2423
 1401DECAN   C313993   2.203   1.046   8.704 -0.4485  0.3621 -0.3312
 1401DECAN   C413994   2.264   1.022   8.843  0.4130  0.2374 -0.7268
 1401DECAN   C513995   2.387   0.931   8.828  0.3707 -0.0083  0.3438
 1401DECAN   C613996   2.476   0.917   8.953 -0.1217 -0.2716  0.6654
 1401DECAN   C713997   2.560   1.045   8.968  0.3306 -0.4513 -0.2666
 1401DECAN   C813998   2.658   1.061   9.087  0.0143 -0.1645 -0.0452
 1401DECAN   C913999   2.587   1.112   9.214  0.1629  0.3797 -0.1761
 1401DECAN  C1014000   2.687   1.145   9.327 -0.0922 -0.4445  0.3041
 1402DECAN   C114001   8.853   2.548   7.375  0.0345  0.4062 -0.2831
 1402DECAN   C214002   8.746   2.492   7.279  0.0869 -0.1931  0.0002
 1402DECAN   C314003   8.604   2.540   7.315  0.5875  0.9580  0.5016
 1402DECAN   C414004   8.558   2.455   7.436 -0.0806  0.0168 -0.3962
 1402DECAN   C514005   8.409   2.487   7.457  0.1162  0.4313  0.4060
 1402DECAN   C614006   8.338   2.408   7.568 -0.2447  0.1077 -0.0514
 1402DECAN   C714007   8.315   2.259   7.537 -0.2908  0.1359 -0.1525
 1402DECAN   C814008   8.281   2.181   7.665 -0.1861 -0.2487 -0.3553
 1402DECAN   C914009   8.248   2.033   7.638 -0.0053 -0.3196 -0.1912
 1402DECAN  C1014010   8.229   1.960   7.771  0.0298  0.1371  0.0675
 1403DECAN   C114011   9.550   8.961   6.231  0.0001 -0.1778 -0.0785
 1403DECAN   C214012   9.512   9.071   6.131  0.1763 -0.0703 -0.0282
 1403DECAN   C314013   9.366   9.116   6.153  0.3088  0.5558 -0.3891
 1403DECAN   C414014   9.313   9.236   6.072 -0.1635  0.6480  0.0485
 1403DECAN   C514015   9.163   9.263   6.089 -0.3298  0.1351 -0.6084
 1403DECAN   C614016   9.106   9.301   6.227 -0.0126 -0.0577 -0.4239
 1403DECAN   C714017   8.953   9.283   6.239  0.0170 -0.1304 -0.1626
 1403DECAN   C814018   8.896   9.270   6.382  0.4269  0.5077  0.0647
 1403DECAN   C914019   8.950   9.145   6.454  0.2374  0.3761 -0.0220
 1403DECAN  C1014020   9.094   9.163   6.506  0.3986 -0.1303 -0.2856
 1404DECAN   C114021   5.639   5.548  13.722  0.7189  0.3510 -0.6888
 1404DECAN   C214022   5.571   5.427  13.655 -0.0492  0.5821 -0.3346
 1404DECAN   C314023   5.611   5.289  13.710 -0.0140  0.7614  0.0928
 1404DECAN   C414024   5.526   5.174  13.653  0.8535 -0.0608  0.4494
 1404DECAN   C514025   5.572   5.030  13.686  0.7180 -0.2612 -0.2069
 1404DECAN   C614026   5.556   5.003  13.837  0.3389 -0.4704 -0.2867
 1404DECAN   C714027   5.616   4.868  13.880  0.0324 -0.4639  0.1683
 1404DECAN   C814028   5.564   4.825  14.019  0.1375  0.0891  0.3805
 1404DECAN   C914029   5.640   4.696  14.054 -0.0368  0.0073  0.4623
 1404DECAN  C1014030   5.779   4.738  14.106  0.0285  0.0515  0.2511
 1405DECAN   C114031   1.937   7.373  10.843  0.2313 -0.4319  0.0775
 1405DECAN   C214032   2.002   7.359  10.982 -0.2562  0.3746  0.3896
 1405DECAN   C314033   1.934   7.252  11.069 -0.1542 -0.2441 -0.2816
 1405DECAN   C414034   2.015   7.228  11.198 -0.3285  0.5007 -0.0256
 1405DECAN   C514035   1.943   7.200  11.331 -0.1920  0.0862 -0.0386
 1405DECAN   C614036   2.023   7.122  11.438  0.1090  0.2303 -0.1571
 1405DECAN   C714037   2.094   7.204  11.547  0.3132  0.3729 -0.3974
 1405DECAN   C814038   2.173   7.131  11.657  0.0710  0.0144 -0.4600
 1405DECAN   C914039   2.104   7.012  11.726  0.4782  0.1170  0.1318
 1405DECAN  C1014040   2.205   6.929  11.806  0.7029  0.4444  0.1915
 1406DECAN   C114041   9.072   1.267  14.078  0.1694  0.1005 -0.3262
 1406DECAN   C214042   9.100   1.304  14.224 -0.0835 -0.7313 -0.0647
 1406DECAN   C314043   9.084   1.199  14.336 -0.1088  0.1836  0.8005
 1406DECAN   C414044   8.952   1.121  14.329 -0.0259  0.0748  0.4446
 1406DECAN   C514045   8.919   1.086  14.183  0.6558 -0.7057  0.4719
 1406DECAN   C614046   8.794   0.997  14.195  0.2710 -0.2529 -0.1586
 1406DECAN   C714047   8.817   0.875  14.286 -0.3299  0.0643  0.4267
 1406DECAN   C814048   8.683   0.802  14.306 -0.2829 -0.2544 -0.4040
 1406DECAN   C914049   8.697   0.665  14.374  0.1333 -0.1030 -0.1828
 1406DECAN  C1014050   8.573   0.581  14.408  0.1708 -0.0391  0.1099
 1407DECAN   C114051   3.991   0.552  10.521 -0.0826 -0.0479 -0.0288
 1407DECAN   C214052   3.973   0.409  10.466 -0.0644 -0.2508  0.4828
 1407DECAN   C314053   3.947   0.416  10.314  0.8684  0.1250  0.3301
 1407DECAN   C414054   3.976   0.296  10.222 -0.5271  0.0919 -0.0888
 1407DECAN   C514055   3.889   0.169  10.233 -0.3692 -0.0180 -0.1044
 1407DECAN   C614056   3.905   0.076  10.111 -0.2581 -0.3732  0.1794
 1407DECAN   C714057   3.834  11.186  10.135 -0.3940 -0.3771 -0.2522
 1407DECAN   C814058   3.879  11.119  10.266 -0.0943 -0.5330 -0.4324
 1407DECAN   C914059   3.813  10.988  10.314 -0.3117 -0.2603  0.0187
 1407DECAN  C1014060   3.662  11.004  10.339 -0.2576 -0.0284  0.2031
 1408DECAN   C114061   2.910   8.385  10.023 -0.3692  0.7513  0.3942
 1408DECAN   C214062   2.823   8.362   9.897  0.0465 -0.2069  0.2742
 1408DECAN   C314063   2.788   8.212   9.893 -0.0730 -0.1677 -0.2439
 1408DECAN   C414064   2.905   8.134   9.832 -0.0617  0.2450 -0.7561
 1408DECAN   C514065   2.879   7.984   9.809  0.1609  0.1599 -0.4688
 1408DECAN   C614066   2.757   7.954   9.720  0.0446 -0.0703 -0.2327
 1408DECAN   C714067   2.797   7.884   9.589 -0.1871  0.4783 -0.6035
 1408DECAN   C814068   2.680   7.867   9.491 -1.0445 -0.4693  0.5578
 1408DECAN   C914069   2.710   7.791   9.360 -0.1013  0.2114  0.3678
 1408DECAN  C1014070   2.576   7.743   9.301  0.2096 -0.0642 -0.1235
 1409DECAN   C114071   8.619   3.125   8.081 -0.0808 -0.0479 -0.2232
 1409DECAN   C214072   8.564   2.983   8.106 -0.0109  0.0091  0.2722
 1409DECAN   C314073   8.506   2.963   8.247  0.3971 -0.4302  0.3839
 1409DECAN   C414074   8.503   2.816   8.292 -0.1833 -0.6085 -0.2098
 1409DECAN   C514075   8.424   2.797   8.423  0.2301 -0.3269  0.0852
 1409DECAN   C614076   8.392   2.658   8.480 -0.4867 -0.1617  0.0910
 1409DECAN   C714077   8.320   2.660   8.616  0.0361 -0.3189  0.3726
 1409DECAN   C814078   8.333   2.524   8.687 -0.0913 -0.3264  0.3823
 1409DECAN   C914079   8.286   2.526   8.834  0.0164  0.2539  0.4112
 1409DECAN  C1014080   8.344   2.416   8.925  0.1787  0.0951  0.1215
 1410DECAN   C114081   7.001   1.020  11.779  0.3916 -0.3006  0.2344
 1410DECAN   C214082   7.002   0.888  11.701 -0.5577 -0.2299  0.0845
 1410DECAN   C314083   7.139   0.873  11.631 -0.7263 -0.1504 -0.2616
 1410DECAN   C414084   7.182   0.977  11.526  0.4749 -0.2006  0.1750
 1410DECAN   C514085   7.325   0.981  11.468  0.3095 -0.3970 -0.2503
 1410DECAN   C614086   7.334   1.078  11.349  0.4273 -0.2650 -0.1347
 1410DECAN   C714087   7.433   1.048  11.235  0.5468 -0.0092 -0.1001
 1410DECAN   C814088   7.411   0.932  11.137 -0.4289  0.2612 -0.2108
 1410DECAN   C914089   7.534   0.901  11.049 -0.3100  0.2946 -0.0561
 1410DECAN  C1014090   7.513   0.816  10.923  0.3105  0.3402 -0.1902
 1411DECAN   C114091   3.509   2.343   3.998  0.1566 -0.0779 -0.5139
 1411DECAN   C214092   3.593   2.355   4.126  0.1357  0.3293 -0.5360
 1411DECAN   C314093   3.732   2.290   4.120  0.1206  0.2617 -0.1757
 1411DECAN   C414094   3.806   2.268   4.254  0.2846 -0.4772 -0.3832
 1411DECAN   C514095   3.949   2.210   4.249  0.4394 -0.1342  0.0129
 1411DECAN   C614096   3.984   2.113   4.362  0.1853 -0.0222  0.1891
 1411DECAN   C714097   3.995   2.176   4.502  0.4188 -0.0874  0.2010
 1411DECAN   C814098   3.863   2.233   4.557  0.2465 -0.1642 -0.1309
 1411DECAN   C914099   3.889   2.344   4.661 -0.4138 -0.7312  0.6538
 1411DECAN  C1014100   3.756   2.392   4.722 -0.2770  0.5737 -0.0391
 1412DECAN   C114101  10.210   6.274   9.690 -0.1273  0.5068  0.2276
 1412DECAN   C214102  10.141   6.299   9.825 -0.7557  0.3852 -0.0669
 1412DECAN   C314103  10.141   6.172   9.912 -0.0538  0.0641 -0.5266
 1412DECAN   C414104  10.104   6.191  10.061  0.9377 -0.2255 -0.2391
 1412DECAN   C514105  10.048   6.069  10.136  0.2295  0.1312 -0.1887
 1412DECAN   C614106  10.129   5.939  10.129 -0.0669 -0.0439 -0.4025
 1412DECAN   C714107  10.130   5.879   9.987  0.1754 -0.6926 -0.1309
 1412DECAN   C814108   9.995   5.812   9.956 -0.1403 -0.0765 -0.0935
 1412DECAN   C914109   9.988   5.748   9.816  0.0034  0.1948 -0.2267
 1412DECAN  C1014110   9.856   5.674   9.787  0.1315 -0.0198 -0.2647
 1413DECAN   C114111   5.425   4.034  13.353  0.2711 -0.0235  0.1377
 1413DECAN   C214112   5.433   4.157  13.262 -0.2824 -0.1162 -0.0432
 1413DECAN   C314113   5.296   4.227  13.253  0.0835  0.5546 -0.5181
 1413DECAN   C414114   5.295   4.344  13.153  0.2845  0.5528 -0.5237
 1413DECAN   C514115   5.309   4.281  13.013  0.1824 -0.6308 -0.0171
 1413DECAN   C614116   5.299   4.400  12.915 -0.1082 -0.5078  0.1640
 1413DECAN   C714117   5.297   4.360  12.767 -0.4435  0.4115 -0.0863
 1413DECAN   C814118   5.170   4.276  12.744  0.1856 -0.5859  0.0343
 1413DECAN   C914119   5.132   4.238  12.600  0.6297 -0.0506 -0.2245
 1413DECAN  C1014120   5.239   4.144  12.540  0.0556 -0.5081 -0.5388
 1414DECAN   C114121   2.169   2.847   8.958  0.1948 -0.3289 -0.6835
 1414DECAN   C214122   2.290   2.851   9.054 -0.2467 -0.3379 -0.1173
 1414DECAN   C314123   2.261   2.915   9.191 -0.4288 -0.2629 -0.1898
 1414DECAN   C414124   2.209   3.060   9.187  0.9546  0.2565 -0.2128
 1414DECAN   C514125   2.223   3.132   9.322 -0.3661 -0.5234  0.3662
 1414DECAN   C614126   2.136   3.259   9.327  0.6135  0.1622  0.4017
 1414DECAN   C714127   2.133   3.360   9.212 -0.1392 -0.2095  0.0902
 1414DECAN   C814128   2.262   3.439   9.183 -0.0597 -0.2377  0.3710
 1414DECAN   C914129   2.319   3.498   9.313 -0.4073 -0.1456  0.4826
 1414DECAN  C1014130   2.443   3.587   9.291 -0.2844 -0.3347  0.4147
 1415DECAN   C114131   6.358   7.727   7.853  0.0652  0.2702  0.4093
 1415DECAN   C214132   6.437   7.664   7.737 -0.0233 -0.5451  0.7857
 1415DECAN   C314133   6.548   7.757   7.687 -0.0413 -0.8141  0.2409
 1415DECAN   C414134   6.639   7.686   7.584 -0.0038  0.1221 -0.3867
 1415DECAN   C514135   6.742   7.772   7.509  0.3905 -0.2892 -0.3196
 1415DECAN   C614136   6.677   7.867   7.407  0.2267 -0.0150  0.0397
 1415DECAN   C714137   6.562   7.949   7.470  0.1532 -0.1387  0.0654
 1415DECAN   C814138   6.523   8.078   7.397 -0.7507 -0.4385  0.0132
 1415DECAN   C914139   6.437   8.180   7.474 -0.3349  0.1227 -0.2627
 1415DECAN  C1014140   6.517   8.297   7.536 -0.6108  0.0841  0.1704
 1416DECAN   C114141   7.481   1.165   5.996 -0.0522  0.6223 -0.2042
 1416DECAN   C214142   7.561   1.207   5.871  0.1370  0.1074 -0.2594
 1416DECAN   C314143   7.512   1.152   5.735 -0.2608 -0.3034  0.0469
 1416DECAN   C414144   7.374   1.214   5.707 -0.1304  0.0884  0.2711
 1416DECAN   C514145   7.297   1.145   5.593 -0.2260 -0.6558  0.7808
 1416DECAN   C614146   7.159   1.211   5.581  0.3244  0.2932 -0.6010
 1416DECAN   C714147   7.067   1.148   5.475 -0.0552  0.7111 -0.5279
 1416DECAN   C814148   7.052   0.996   5.497  0.5539  0.7437  0.1619
 1416DECAN   C914149   6.943   0.928   5.412  0.3657  0.6138  0.5089
 1416DECAN  C1014150   6.794   0.963   5.431  0.2261  0.2233  0.1257
 1417DECAN   C114151   2.325   7.730  11.285 -0.0302 -0.0987  0.4518
 1417DECAN   C214152   2.205   7.641  11.322 -0.0764 -0.0009  0.5366
 1417DECAN   C314153   2.065   7.684  11.273  0.0897 -0.4499 -0.3634
 1417DECAN   C414154   1.940   7.625  11.342 -0.0096 -0.0640 -0.2099
 1417DECAN   C514155   1.917   7.653  11.491 -0.0620 -0.0841 -0.2143
 1417DECAN   C614156   1.778   7.602  11.533  0.1414 -0.5935 -0.1573
 1417DECAN   C714157   1.755   7.450  11.536  0.1420 -0.5860  0.2517
 1417DECAN   C814158   1.608   7.414  11.565 -0.0468  0.0932  0.1525
 1417DECAN   C914159   1.591   7.261  11.567  0.2697  0.0484 -0.3662
 1417DECAN  C1014160   1.450   7.201  11.578  0.2712  0.0920 -0.0999
 1418DECAN   C114161   4.810  10.018  13.427 -0.2365  0.4455  0.2696
 1418DECAN   C214162   4.917  10.111  13.369 -0.0495  0.1329  0.1104
 1418DECAN   C314163   4.899  10.121  13.216 -0.0559  0.2032  0.1145
 1418DECAN   C414164   4.987  10.228  13.148 -0.1748  0.3677  0.2238
 1418DECAN   C514165   5.135  10.230  13.189 -0.1131 -0.0025  0.0142
 1418DECAN   C614166   5.211  10.341  13.114  0.1201  0.0270  0.2943
 1418DECAN   C714167   5.223  10.334  12.961  0.3369  0.4328  0.2911
 1418DECAN   C814168   5.348  10.265  12.902  0.2646  0.4932  0.0685
 1418DECAN   C914169   5.363  10.119  12.946  0.0860  0.3909 -0.2009
 1418DECAN  C1014170   5.482  10.048  12.879 -0.0996 -0.1252  0.0099
 1419DECAN   C114171  10.334   8.058   6.827 -0.2513  0.1619  0.5896
 1419DECAN   C214172  10.202   8.134   6.802 -0.2022 -0.1493 -0.7074
 1419DECAN   C314173  10.216   8.266   6.723 -0.2771  0.2802 -0.0176
 1419DECAN   C414174  10.281   8.274   6.584  0.2288  0.4289  0.2232
 1419DECAN   C514175  10.201   8.209   6.469  0.6310 -0.0686  0.2175
 1419DECAN   C614176  10.252   8.228   6.325 -0.3299  0.0153 -0.1207
 1419DECAN   C714177  10.268   8.376   6.285  0.6781 -0.0472  0.0279
 1419DECAN   C814178  10.346   8.413   6.158  0.4706 -0.1995 -0.1433
 1419DECAN   C914179  10.277   8.355   6.033  0.1993 -0.4462  0.1197
 1419DECAN  C1014180  10.340   8.392   5.897  0.5414 -0.1004  0.3708
 1420DECAN   C114181   8.176   3.555  13.868 -0.4614  0.3181 -0.2659
 1420DECAN   C214182   8.225   3.421  13.810 -0.0146  0.4051 -0.0916
 1420DECAN   C314183   8.206   3.301  13.904  0.1568  0.0245 -0.5383
 1420DECAN   C414184   8.288   3.179  13.858  0.5763  0.2522 -0.3952
 1420DECAN   C514185   8.275   3.060  13.955 -0.4725  0.5450 -0.1626
 1420DECAN   C614186   8.306   3.108  14.098  0.0133 -0.5293  0.1025
 1420DECAN   C714187   8.170   3.163  14.145  0.3714  0.0267  0.5013
 1420DECAN   C814188   8.156   3.195  14.295 -0.2658  0.2894  0.3918
 1420DECAN   C914189   8.221   3.323  14.351  0.5366  0.0298  0.0740
 1420DECAN  C1014190   8.154   3.455  14.310 -0.6527 -0.7800 -0.6533
 1421DECAN   C114191   2.428   0.562   7.590 -0.2783 -0.2863  0.4675
 1421DECAN   C214192   2.373   0.488   7.713 -0.2567 -0.2424  0.5033
 1421DECAN   C314193   2.425   0.547   7.845 -0.3951  0.1354  0.3888
 1421DECAN   C414194   2.396   0.470   7.975 -0.5526  0.0230  0.2872
 1421DECAN   C514195   2.452   0.327   7.966  0.0157  0.2846 -0.3670
 1421DECAN   C614196   2.391   0.241   8.078 -0.0440  0.3126 -0.3782
 1421DECAN   C714197   2.433   0.093   8.076 -0.0713  0.2860  0.5934
 1421DECAN   C814198   2.373   0.001   8.184 -0.2553  0.3104  0.5109
 1421DECAN   C914199   2.228  11.211   8.144  0.0619 -0.2059 -0.2277
 1421DECAN  C1014200   2.144  11.131   8.246  0.6890 -0.0022  0.4594
 1422DECAN   C114201   2.576  10.169   7.184  0.0649 -0.2879 -0.8964
 1422DECAN   C214202   2.725  10.195   7.151  0.2354  0.0407  0.0958
 1422DECAN   C314203   2.787  10.316   7.222  0.4679 -0.0554  0.0570
 1422DECAN   C414204   2.690  10.433   7.196  0.1834 -0.3772 -0.3297
 1422DECAN   C514205   2.735  10.572   7.243 -0.2459 -0.4213  0.2261
 1422DECAN   C614206   2.629  10.681   7.218  0.2170 -0.0249 -0.0304
 1422DECAN   C714207   2.653  10.818   7.284 -0.2004  0.1919 -0.3277
 1422DECAN   C814208   2.737  10.905   7.188  0.1905  0.3969  0.1960
 1422DECAN   C914209   2.745  11.056   7.215 -0.2610  0.3989  0.3245
 1422DECAN  C1014210   2.844  11.075   7.331 -0.0332  0.6921  0.0854
 1423DECAN   C114211   8.082   9.671  11.331  0.1346 -0.7836 -0.1303
 1423DECAN   C214212   8.159   9.687  11.198 -0.2151  0.4466 -0.1998
 1423DECAN   C314213   8.072   9.651  11.076  0.1609 -0.1617 -0.2893
 1423DECAN   C414214   8.166   9.674  10.956  0.2605 -0.1037 -0.2008
 1423DECAN   C514215   8.104   9.648  10.817 -0.3233 -0.3183  0.0950
 1423DECAN   C614216   7.972   9.725  10.800  0.0680  0.3103 -0.1336
 1423DECAN   C714217   7.892   9.702  10.671  0.2864  0.7581 -0.3494
 1423DECAN   C814218   7.746   9.750  10.680  0.0430  0.0100 -0.2475
 1423DECAN   C914219   7.679   9.771  10.542 -0.3725 -0.4559 -0.1232
 1423DECAN  C1014220   7.779   9.766  10.425 -0.4580  0.2083 -0.2278
 1424DECAN   C114221   5.446   0.588  11.753 -0.0164 -0.2885  0.3282
 1424DECAN   C214222   5.422   0.498  11.630 -0.1555  0.4775 -0.2135
 1424DECAN   C314223   5.348   0.366  11.663  0.0790  0.2356 -0.6568
 1424DECAN   C414224   5.374   0.243  11.574  0.4087  0.2894 -0.6372
 1424DECAN   C514225   5.527   0.224  11.570  0.3590 -0.2046 -0.3520
 1424DECAN   C614226   5.587   0.219  11.711 -0.2019 -0.4187 -0.1164
 1424DECAN   C714227   5.739   0.193  11.716 -0.2110 -0.4642 -0.0666
 1424DECAN   C814228   5.835   0.293  11.648  0.5677 -0.6436  0.7428
 1424DECAN   C914229   5.853   0.428  11.720  0.2440 -0.2123  0.0299
 1424DECAN  C1014230   5.946   0.534  11.658  0.0031  0.1110  0.2190
 1425DECAN   C114231   3.019  11.202   8.883 -0.1526 -0.5883  0.0094
 1425DECAN   C214232   3.086  11.174   9.019  0.1942  0.8101  0.1370
 1425DECAN   C314233   3.184  11.056   9.002  0.0332  0.6544  0.2775
 1425DECAN   C414234   3.232  11.007   9.140  0.4447  0.1956 -0.0256
 1425DECAN   C514235   3.125  10.922   9.211  0.2916  0.7033  0.3654
 1425DECAN   C614236   3.187  10.859   9.337 -0.2492 -0.0018  0.2886
 1425DECAN   C714237   3.090  10.751   9.388 -0.2702 -0.3687 -0.5022
 1425DECAN   C814238   3.053  10.651   9.277 -0.4800 -0.3810 -0.4219
 1425DECAN   C914239   3.173  10.559   9.247 -0.3694 -0.4569  0.2361
 1425DECAN  C1014240   3.160  10.466   9.125 -0.3104  0.2998 -0.3528
 1426DECAN   C114241   2.171  10.434   9.729  0.1139 -0.3791  0.0408
 1426DECAN   C214242   2.173  10.562   9.644  0.3548 -0.4854 -0.1138
 1426DECAN   C314243   2.050  10.561   9.550  0.0775  0.3891  0.2293
 1426DECAN   C414244   2.039  10.671   9.442  0.5847 -0.0029 -0.2283
 1426DECAN   C514245   1.895  10.675   9.389  0.4154  0.6730  0.2669
 1426DECAN   C614246   1.866  10.785   9.285 -0.0892  0.3846  0.0913
 1426DECAN   C714247   1.716  10.807   9.261 -0.2010  0.1560  0.5609
 1426DECAN   C814248   1.696  10.926   9.165 -0.5124 -0.1330  0.2655
 1426DECAN   C914249   1.725  10.897   9.017  0.0015  0.4310  0.2535
 1426DECAN  C1014250   1.701  11.015   8.921  0.1967  0.1893 -0.0998
 1427DECAN   C114251   5.418   8.819   6.816  0.4113  0.3173 -0.0713
 1427DECAN   C214252   5.307   8.832   6.922  0.3998  0.3915 -0.0923
 1427DECAN   C314253   5.291   8.971   6.987  0.1657  0.3775 -0.1197
 1427DECAN   C414254   5.218   8.950   7.121 -0.1119  0.4499 -0.2583
 1427DECAN   C514255   5.168   9.081   7.186 -0.0966  0.2499  0.1576
 1427DECAN   C614256   5.097   9.053   7.320  0.1203 -0.1474  0.1905
 1427DECAN   C714257   5.046   9.171   7.404 -0.5894 -0.1113 -0.2778
 1427DECAN   C814258   4.958   9.134   7.524  0.1955  0.0688  0.3660
 1427DECAN   C914259   5.029   9.040   7.622  0.4163 -0.3406 -0.1813
 1427DECAN  C1014260   4.942   8.955   7.718  0.0216  0.1451 -0.1073
 1428DECAN   C114261   9.198   0.137   5.118 -0.2320  0.6452 -0.7495
 1428DECAN   C214262   9.065   0.180   5.183 -0.3511  0.1272 -0.6511
 1428DECAN   C314263   9.032   0.327   5.216 -1.1676 -0.0281 -0.7596
 1428DECAN   C414264   8.911   0.342   5.310 -0.4109 -0.4312  0.2915
 1428DECAN   C514265   8.878   0.492   5.321 -0.2380 -0.3520 -0.2313
 1428DECAN   C614266   8.750   0.531   5.398  0.0875  0.1945  0.0437
 1428DECAN   C714267   8.727   0.682   5.418  0.0220  0.2607 -0.5114
 1428DECAN   C814268   8.861   0.744   5.461 -0.1188  0.2525 -0.0641
 1428DECAN   C914269   8.872   0.896   5.486  0.2248  0.1492  0.4372
 1428DECAN  C1014270   9.018   0.942   5.499  0.4343 -0.5326  0.5377
 1429DECAN   C114271   1.696   8.074  10.500 -0.5867  0.5886 -0.3750
 1429DECAN   C214272   1.658   8.131  10.637 -0.0325  0.2072 -0.0605
 1429DECAN   C314273   1.667   8.285  10.645  0.3798  0.1702  0.2454
 1429DECAN   C414274   1.637   8.345  10.783  0.1671  0.1632  0.2022
 1429DECAN   C514275   1.636   8.499  10.797  0.1784  0.1845 -0.0317
 1429DECAN   C614276   1.627   8.541  10.945 -0.5056  0.1107 -0.0462
 1429DECAN   C714277   1.670   8.687  10.969 -0.2598  0.0003  0.1966
 1429DECAN   C814278   1.666   8.726  11.117 -0.3729 -0.2077  0.2495
 1429DECAN   C914279   1.773   8.659  11.206  0.1681 -0.0260 -0.2586
 1429DECAN  C1014280   1.749   8.507  11.213  0.6826 -0.1128 -0.3018
 1430DECAN   C114281   5.628   6.626   5.931 -0.0246 -0.3273  0.1219
 1430DECAN   C214282   5.699   6.560   5.811 -0.0545 -0.4844  0.1909
 1430DECAN   C314283   5.841   6.615   5.792  0.1247 -0.9065  0.2873
 1430DECAN   C414284   5.915   6.544   5.677 -0.1928 -0.5050 -0.1711
 1430DECAN   C514285   6.052   6.609   5.648 -0.1053 -0.5921  0.0430
 1430DECAN   C614286   6.130   6.550   5.530  0.1668  0.4629 -0.3143
 1430DECAN   C714287   6.152   6.645   5.410 -0.4715  0.1132 -0.7129
 1430DECAN   C814288   6.239   6.591   5.295  0.2902 -0.1942 -0.0014
 1430DECAN   C914289   6.251   6.679   5.170 -0.8966  0.5117  0.3582
 1430DECAN  C1014290   6.128   6.687   5.079 -0.6977 -0.3216  0.0041
 1431DECAN   C114291   4.672   5.848   6.872 -0.8340  0.0069 -0.6812
 1431DECAN   C214292   4.562   5.741   6.886 -0.3621 -0.4096 -0.1157
 1431DECAN   C314293   4.589   5.602   6.825  0.2437 -0.2683 -0.1747
 1431DECAN   C414294   4.460   5.518   6.810  0.1008 -0.1744  0.4865
 1431DECAN   C514295   4.473   5.382   6.739 -0.1070 -0.2132  0.5229
 1431DECAN   C614296   4.553   5.287   6.830  0.2962 -0.0219  0.3704
 1431DECAN   C714297   4.566   5.143   6.777  0.0071 -0.1372  0.6101
 1431DECAN   C814298   4.689   5.073   6.838  0.3180  0.0756  0.2369
 1431DECAN   C914299   4.689   4.923   6.800 -0.0424  0.0626  0.2804
 1431DECAN  C1014300   4.700   4.900   6.649  0.5701  0.3398  0.2782
 1432DECAN   C114301   7.143   3.778   6.967 -0.5939 -0.3666 -0.0518
 1432DECAN   C214302   7.155   3.892   6.864 -0.3764 -0.3536 -0.0122
 1432DECAN   C314303   7.097   4.023   6.919  0.2010 -0.0022 -0.2328
 1432DECAN   C414304   7.078   4.135   6.815  0.3264 -0.0159 -0.2708
 1432DECAN   C514305   7.006   4.257   6.877  0.2793  0.0014 -0.3590
 1432DECAN   C614306   6.961   4.364   6.776  0.1262  0.2077 -0.0745
 1432DECAN   C714307   6.859   4.325   6.668  0.0644 -0.1638  0.1170
 1432DECAN   C814308   6.819   4.450   6.587  0.1270 -0.0779  0.2181
 1432DECAN   C914309   6.695   4.435   6.496 -0.2694  0.5281  0.6510
 1432DECAN  C1014310   6.667   4.565   6.419 -0.1363 -0.2051 -0.6483
 1433DECAN   C114311  10.220   3.267   8.966 -0.0311 -0.2739  0.1883
 1433DECAN   C214312  10.225   3.180   8.838  0.5222 -0.4930  0.3545
 1433DECAN   C314313  10.177   3.239   8.704 -0.6240 -0.0512  0.9437
 1433DECAN   C414314  10.041   3.206   8.641 -0.1780 -0.1423  0.0177
 1433DECAN   C514315   9.930   3.294   8.702  0.1430  0.4631 -0.2641
 1433DECAN   C614316   9.790   3.278   8.640 -0.0053 -0.4033  0.2659
 1433DECAN   C714317   9.723   3.141   8.660 -0.8052  0.0321  0.6185
 1433DECAN   C814318   9.585   3.110   8.600 -0.5677 -0.4080  0.2974
 1433DECAN   C914319   9.559   2.959   8.623  0.1814 -0.5098  0.4881
 1433DECAN  C1014320   9.412   2.924   8.593  0.0922  0.8258 -0.7876
 1434DECAN   C114321   7.904   6.429   9.459 -0.1887 -0.2212 -0.0573
 1434DECAN   C214322   7.824   6.487   9.342  0.2463 -0.0218 -0.2604
 1434DECAN   C314323   7.859   6.629   9.294  0.3712 -0.0484 -0.2487
 1434DECAN   C414324   7.989   6.666   9.221  0.6011 -0.2728  0.0411
 1434DECAN   C514325   7.988   6.614   9.076 -0.4920  0.0354 -0.0678
 1434DECAN   C614326   7.982   6.460   9.072 -0.3154  0.0190  0.3156
 1434DECAN   C714327   8.109   6.395   9.129  0.1172  0.6108  0.0437
 1434DECAN   C814328   8.117   6.249   9.082  0.8020  0.7228 -0.2034
 1434DECAN   C914329   8.222   6.162   9.154 -0.1032 -0.1852  0.0569
 1434DECAN  C1014330   8.248   6.016   9.114  0.3391 -0.0172 -0.2760
 1435DECAN   C114331   2.891   0.746  14.947 -0.1859  0.8719 -0.0419
 1435DECAN   C214332   2.782   0.691  14.853 -0.0948  0.4451  0.1005
 1435DECAN   C314333   2.759   0.776  14.726 -0.3731 -0.0078 -0.1539
 1435DECAN   C414334   2.678   0.907  14.732  0.2448  0.3697 -0.0350
 1435DECAN   C514335   2.742   1.018  14.818  0.8879  0.1038 -0.1614
 1435DECAN   C614336   2.667   1.152  14.827  0.1593 -0.3160  0.1291
 1435DECAN   C714337   2.644   1.222  14.963 -0.4160 -0.4562  0.1066
 1435DECAN   C814338   2.575   1.359  14.953 -0.1953 -0.3234  0.3940
 1435DECAN   C914339   2.432   1.346  14.898  0.1215 -0.1776 -0.4801
 1435DECAN  C1014340   2.355   1.479  14.881 -0.2352 -0.2722  0.3661
 1436DECAN   C114341   6.988   8.486   4.203  0.4273  0.2164 -0.1817
 1436DECAN   C214342   6.980   8.349   4.274  0.1761  0.2013 -0.2381
 1436DECAN   C314343   7.104   8.318   4.360  0.0860  0.7250  0.0887
 1436DECAN   C414344   7.243   8.312   4.294 -0.0130  0.0097 -0.0670
 1436DECAN   C514345   7.342   8.304   4.412  0.0013 -0.5014 -0.1138
 1436DECAN   C614346   7.491   8.306   4.374 -0.0310 -0.0259 -0.2185
 1436DECAN   C714347   7.581   8.380   4.475 -0.5084  1.1347 -0.6307
 1436DECAN   C814348   7.715   8.404   4.403  0.2220  0.4948  0.4883
 1436DECAN   C914349   7.820   8.466   4.498  0.4433 -0.1470  0.6652
 1436DECAN  C1014350   7.941   8.519   4.420  0.1594 -0.2362  0.1597
 1437DECAN   C114351   3.127   7.320  11.744 -0.2769  0.1586 -0.1747
 1437DECAN   C214352   3.067   7.446  11.678 -0.3967  0.2714  0.1479
 1437DECAN   C314353   3.118   7.586  11.714 -0.5586  0.3224  0.1792
 1437DECAN   C414354   3.020   7.701  11.686 -0.3418  0.5497  0.3463
 1437DECAN   C514355   3.047   7.839  11.751  0.3644  0.6058 -0.0525
 1437DECAN   C614356   2.929   7.938  11.743 -0.2619 -0.0927  0.3686
 1437DECAN   C714357   2.944   8.079  11.802 -0.2556 -0.1363  0.4716
 1437DECAN   C814358   2.831   8.180  11.773  0.2143  0.3106  0.1880
 1437DECAN   C914359   2.887   8.323  11.780 -0.0702  0.4500 -0.2895
 1437DECAN  C1014360   2.780   8.427  11.743 -0.1586  0.3332 -0.3607
 1438DECAN   C114361  10.457   3.972  10.998 -0.1364  0.6861 -0.0934
 1438DECAN   C214362  10.421   3.951  11.146 -0.0802 -0.4330 -0.2289
 1438DECAN   C314363  10.536   3.911  11.241 -0.4145 -0.1372  0.3053
 1438DECAN   C414364  10.625   4.026  11.291 -0.3756 -0.1087  0.1732
 1438DECAN   C514365  10.555   4.130  11.380  0.2354  0.3605  0.1142
 1438DECAN   C614366  10.642   4.242  11.438 -0.0690  0.2466  0.8087
 1438DECAN   C714367  10.658   4.347  11.326 -0.6856 -0.4530  0.0568
 1438DECAN   C814368  10.524   4.383  11.260 -0.3364  0.4292 -0.1780
 1438DECAN   C914369  10.434   4.490  11.325 -0.3226  0.4255 -0.1520
 1438DECAN  C1014370  10.305   4.510  11.243 -0.4238 -0.5399 -0.2487
 1439DECAN   C114371   7.839   5.623   5.794 -0.0066 -0.0296 -0.2454
 1439DECAN   C214372   7.903   5.757   5.833  0.3398 -0.2735  0.0351
 1439DECAN   C314373   7.816   5.821   5.944  0.4661  0.2221 -0.1462
 1439DECAN   C414374   7.893   5.884   6.062  0.5630 -0.4652  0.1627
 1439DECAN   C514375   7.816   5.937   6.184 -0.0607  0.1057 -0.4705
 1439DECAN   C614376   7.904   6.038   6.259 -0.0961  0.0018 -0.2881
 1439DECAN   C714377   8.050   5.999   6.288 -0.0828  0.2534 -0.0199
 1439DECAN   C814378   8.137   6.097   6.369 -0.1206 -0.0033  0.3342
 1439DECAN   C914379   8.288   6.064   6.371 -0.1959 -0.3775 -0.1030
 1439DECAN  C1014380   8.375   6.172   6.438 -0.4493 -0.1414 -0.1494
 1440DECAN   C114381   6.027   8.023  14.325  0.1430 -0.5393  0.3749
 1440DECAN   C214382   5.997   8.089  14.189  0.2373 -0.7031  0.2740
 1440DECAN   C314383   6.037   7.992  14.077 -0.0958 -0.2268 -0.2641
 1440DECAN   C414384   5.991   7.848  14.104  0.0378 -0.1674  0.2865
 1440DECAN   C514385   6.006   7.751  13.985 -0.5405 -0.1125  0.1640
 1440DECAN   C614386   5.918   7.627  14.011  0.2228 -0.6565  0.1767
 1440DECAN   C714387   5.924   7.577  14.157 -0.0108 -0.2113  0.3417
 1440DECAN   C814388   6.063   7.520  14.188  0.1938 -0.0106 -0.1858
 1440DECAN   C914389   6.085   7.486  14.337 -0.8298 -0.0461 -0.0375
 1440DECAN  C1014390   6.061   7.339  14.377 -0.0323 -0.1150  0.2092
 1441DECAN   C114391  10.303   8.165   5.190 -0.0713 -0.0097  0.1232
 1441DECAN   C214392  10.276   8.310   5.232 -0.2326 -0.0592  0.1927
 1441DECAN   C314393  10.277   8.339   5.384 -0.0619  0.1528  0.1512
 1441DECAN   C414394  10.279   8.488   5.420 -0.0101  0.2463 -0.2281
 1441DECAN   C514395  10.149   8.571   5.421 -0.4287 -0.4094  0.2432
 1441DECAN   C614396  10.158   8.717   5.468 -0.4941 -0.2515 -0.2277
 1441DECAN   C714397  10.023   8.788   5.451 -0.1998  0.2538 -0.5066
 1441DECAN   C814398  10.024   8.917   5.534  0.0796  0.0916 -0.2563
 1441DECAN   C914399  10.107   9.033   5.476  0.6381  0.0647  0.4739
 1441DECAN  C1014400  10.080   9.162   5.556  0.5829  0.6091 -0.4029
 1442DECAN   C114401   1.369   9.345  11.629 -0.6044 -0.1367  0.3063
 1442DECAN   C214402   1.442   9.265  11.739 -0.0368  0.2855  0.2438
 1442DECAN   C314403   1.595   9.271  11.751  0.0397  0.3748 -0.6988
 1442DECAN   C414404   1.644   9.187  11.870  0.1005  0.4988 -0.6370
 1442DECAN   C514405   1.797   9.188  11.892 -0.0615  0.1977  0.5944
 1442DECAN   C614406   1.856   9.100  12.004 -0.1818 -0.1841  0.3578
 1442DECAN   C714407   2.006   9.126  12.023 -0.1713 -0.0137  0.0601
 1442DECAN   C814408   2.051   9.272  12.003  0.5916 -0.2875 -0.2642
 1442DECAN   C914409   2.203   9.296  12.018  0.4630  0.2851  0.1714
 1442DECAN  C1014410   2.259   9.438  12.030  1.0569  0.0990 -0.3349
 1443DECAN   C114411   5.377   7.697   8.108 -0.5837  0.5399  0.0193
 1443DECAN   C214412   5.321   7.582   8.022  0.1584 -0.0446  0.3007
 1443DECAN   C314413   5.269   7.632   7.886 -0.1729 -0.0282  0.4318
 1443DECAN   C414414   5.165   7.744   7.903  0.1351  0.2945  0.1871
 1443DECAN   C514415   5.127   7.826   7.778  0.5553  0.2827  0.0505
 1443DECAN   C614416   5.243   7.907   7.717  0.5677  0.1682 -0.0772
 1443DECAN   C714417   5.216   7.986   7.587  0.2721  0.0929 -0.0612
 1443DECAN   C814418   5.333   8.060   7.520  0.3848  0.1043  0.1456
 1443DECAN   C914419   5.284   8.126   7.390  0.2025 -0.1221  0.0981
 1443DECAN  C1014420   5.177   8.233   7.421  0.0746 -0.3027  0.2864
 1444DECAN   C114421   6.439   6.615   7.893 -0.1890  0.2881  0.1668
 1444DECAN   C214422   6.457   6.680   7.755 -0.2469 -0.2179 -0.0836
 1444DECAN   C314423   6.413   6.828   7.750 -0.1835 -0.2146 -0.6189
 1444DECAN   C414424   6.510   6.940   7.793  0.1375 -0.7823  0.1600
 1444DECAN   C514425   6.538   6.947   7.944 -0.2386 -0.0634  0.2010
 1444DECAN   C614426   6.636   7.059   7.982  0.0716 -0.1879 -0.2245
 1444DECAN   C714427   6.681   7.041   8.128 -0.3893  0.4948  0.0065
 1444DECAN   C814428   6.797   7.132   8.171  0.2650 -0.3027 -0.0533
 1444DECAN   C914429   6.829   7.121   8.322  0.0313 -0.3016 -0.0033
 1444DECAN  C1014430   6.947   7.205   8.375 -0.0263 -0.1102 -0.1763
 1445DECAN   C114431   8.895   2.998  13.131  0.5390 -0.1386  0.3094
 1445DECAN   C214432   8.921   2.979  12.981 -0.0232  0.0900  0.1818
 1445DECAN   C314433   8.797   2.933  12.902  0.2440 -0.4305  0.0623
 1445DECAN   C414434   8.811   2.918  12.750 -0.2276  0.2002 -0.0451
 1445DECAN   C514435   8.683   2.857  12.689 -0.1942  0.5494 -0.4655
 1445DECAN   C614436   8.703   2.821  12.540  0.0432  0.1071 -0.3281
 1445DECAN   C714437   8.593   2.731  12.481 -0.0769 -0.0383  0.1121
 1445DECAN   C814438   8.618   2.677  12.339  0.0819  0.5027 -0.0668
 1445DECAN   C914439   8.506   2.602  12.265  0.8583 -1.0078  0.2526
 1445DECAN  C1014440   8.446   2.490  12.352  0.1258 -0.0142  1.0481
 1446DECAN   C114441   3.739   2.096  12.612 -0.1915 -0.1817  0.4929
 1446DECAN   C214442   3.804   2.143  12.744  0.5584  0.2967 -0.0346
 1446DECAN   C314443   3.901   2.038  12.801 -0.0453 -0.0558  0.3541
 1446DECAN   C414444   4.026   2.036  12.711 -0.2400 -0.5341  0.0877
 1446DECAN   C514445   4.135   1.933  12.744  0.0955 -0.3127 -0.3242
 1446DECAN   C614446   4.076   1.792  12.728 -0.7522 -0.0409  0.3409
 1446DECAN   C714447   4.174   1.693  12.794 -0.3290  0.3748  0.3308
 1446DECAN   C814448   4.093   1.564  12.814  0.1546  0.0847  0.4374
 1446DECAN   C914449   4.166   1.432  12.844 -0.5528 -0.2673  0.6256
 1446DECAN  C1014450   4.074   1.310  12.827 -0.5662 -0.1809  0.0500
 1447DECAN   C114451   7.757   7.344  10.270  0.3202  0.3040  0.0470
 1447DECAN   C214452   7.609   7.381  10.253  0.2666  0.4320  0.7498
 1447DECAN   C314453   7.571   7.531  10.249  0.1428  0.3921  0.4038
 1447DECAN   C414454   7.665   7.618  10.163  0.2798  0.0799  0.2357
 1447DECAN   C514455   7.600   7.742  10.100  0.3664 -0.2420 -0.4984
 1447DECAN   C614456   7.480   7.705  10.012  0.0419 -0.4152  0.0153
 1447DECAN   C714457   7.363   7.649  10.094 -0.0596  0.0324  0.1788
 1447DECAN   C814458   7.270   7.568  10.002 -0.2552  0.1418  0.2792
 1447DECAN   C914459   7.195   7.652   9.896  0.2698  0.0726 -0.1516
 1447DECAN  C1014460   7.066   7.587   9.841 -0.0161 -0.0822  0.6861
 1448DECAN   C114461   9.064  10.641   7.708  0.5857  0.2225  0.0619
 1448DECAN   C214462   9.082  10.643   7.555 -0.0601  0.1438 -0.0182
 1448DECAN   C314463   9.051  10.790   7.520 -0.4823  0.0716  0.0452
 1448DECAN   C414464   9.035  10.814   7.368  0.5947  0.3166 -0.0423
 1448DECAN   C514465   9.165  10.777   7.295  0.4194  0.2733 -0.3326
 1448DECAN   C614466   9.172  10.835   7.152  0.5393 -0.9182 -0.8196
 1448DECAN   C714467   9.053  10.795   7.063 -0.2253 -0.2429 -0.1111
 1448DECAN   C814468   9.037  10.891   6.944  0.1550  0.4929  0.4277
 1448DECAN   C914469   8.918  10.842   6.860  0.6334 -0.4449  0.2815
 1448DECAN  C1014470   8.892  10.944   6.748 -0.0876 -0.0326  0.8113
 1449DECAN   C114471   3.823   9.621  13.001  0.0608  0.1813 -0.0913
 1449DECAN   C214472   3.962   9.560  12.976  0.0531  0.0107  0.2771
 1449DECAN   C314473   3.963   9.413  12.928 -0.1389  0.0844  0.0471
 1449DECAN   C414474   4.105   9.375  12.884 -0.4623 -0.6688 -0.3619
 1449DECAN   C514475   4.118   9.240  12.811 -0.2043 -0.4825 -0.6643
 1449DECAN   C614476   4.260   9.203  12.764  0.0806 -0.3770  0.1130
 1449DECAN   C714477   4.276   9.077  12.678 -0.3932 -0.1033 -0.3777
 1449DECAN   C814478   4.423   9.073  12.632 -0.2044  0.3374  0.1828
 1449DECAN   C914479   4.531   9.084  12.741 -0.0687 -0.0736  0.0926
 1449DECAN  C1014480   4.671   9.044  12.691 -0.3400 -0.2506 -0.5265
 1450DECAN   C114481   8.820   0.387  11.176  0.3558  0.1465  0.0929
 1450DECAN   C214482   8.930   0.288  11.134  0.1177 -0.0885  0.0211
 1450DECAN   C314483   8.900   0.191  11.018  0.0509  0.0851 -0.1083
 1450DECAN   C414484   9.017   0.091  11.025 -0.4242 -0.4945 -0.3711
 1450DECAN   C514485   8.998  11.216  10.929 -0.5477 -0.7245 -0.0639
 1450DECAN   C614486   9.100  11.101  10.935  0.3645  0.0690 -0.1547
 1450DECAN   C714487   9.086  11.007  10.813  0.0861 -0.3403  0.1925
 1450DECAN   C814488   9.114  11.059  10.671  0.0199 -0.6868  0.0520
 1450DECAN   C914489   8.983  11.131  10.632  0.6030  0.1706 -0.3625
 1450DECAN  C1014490   8.969  11.185  10.489 -0.1149  0.1619 -0.3008
 1451DECAN   C114491   3.715   6.514   5.464  0.6107  0.5864  0.1564
 1451DECAN   C214492   3.570   6.463   5.463  0.8102  0.0114  0.1760
 1451DECAN   C314493   3.477   6.566   5.530 -0.1103 -0.3885 -0.4628
 1451DECAN   C414494   3.531   6.628   5.661 -0.2702 -0.0824 -0.5424
 1451DECAN   C514495   3.449   6.730   5.742  0.2175 -0.0077 -0.1450
 1451DECAN   C614496   3.398   6.848   5.657  0.3610  0.2047  0.0588
 1451DECAN   C714497   3.356   6.966   5.746  0.2268  0.2569 -0.0716
 1451DECAN   C814498   3.312   7.089   5.665 -0.5824  0.2182  0.3063
 1451DECAN   C914499   3.177   7.072   5.592 -0.0951 -0.0585 -0.5341
 1451DECAN  C1014500   3.061   7.054   5.691 -0.2956  0.0023 -0.7587
 1452DECAN   C114501   3.096   6.544  12.561 -0.0672  0.0207 -0.0070
 1452DECAN   C214502   2.982   6.626  12.499 -0.2021 -0.1303  0.0386
 1452DECAN   C314503   2.964   6.771  12.549  0.2145 -0.0582 -0.0160
 1452DECAN   C414504   3.095   6.851  12.540 -0.0098  0.2956 -0.1521
 1452DECAN   C514505   3.081   7.000  12.576  0.9441  0.5378 -0.7348
 1452DECAN   C614506   3.204   7.091  12.588  0.8296  0.6315 -0.2692
 1452DECAN   C714507   3.281   7.056  12.717  0.1835 -0.0203 -0.0529
 1452DECAN   C814508   3.404   7.146  12.740  0.0617  0.2364 -0.3986
 1452DECAN   C914509   3.462   7.125  12.881 -0.7652 -0.2225 -0.1225
 1452DECAN  C1014510   3.525   6.989  12.917 -0.1449  0.0612 -0.1360
 1453DECAN   C114511   7.590   0.902  12.703 -0.5738  0.5517  0.0297
 1453DECAN   C214512   7.653   0.907  12.562 -0.3044  0.0400  0.1294
 1453DECAN   C314513   7.800   0.862  12.572 -0.4227 -0.3981 -0.0706
 1453DECAN   C414514   7.864   0.859  12.432 -0.4818 -0.2292 -0.1017
 1453DECAN   C514515   7.898   0.990  12.359  0.0772 -0.5993 -0.5165
 1453DECAN   C614516   7.983   0.975  12.232  0.1248 -0.2633 -0.5249
 1453DECAN   C714517   7.975   1.095  12.135  0.4010  0.1817 -0.0039
 1453DECAN   C814518   7.830   1.108  12.086  0.2229  0.0171  0.4743
 1453DECAN   C914519   7.739   1.128  12.209 -0.5670 -0.2394 -0.0580
 1453DECAN  C1014520   7.589   1.140  12.177 -0.5037 -0.7186 -0.5417
 1454DECAN   C114521   9.118   4.796   3.901 -0.2467 -0.3526 -0.1364
 1454DECAN   C214522   9.267   4.754   3.900 -0.1439  0.0086 -0.2278
 1454DECAN   C314523   9.367   4.853   3.962  0.0472 -0.3866  0.1031
 1454DECAN   C414524   9.511   4.798   3.969  0.2912  0.1880 -0.2805
 1454DECAN   C514525   9.508   4.685   4.074 -0.0255  0.5640  0.1184
 1454DECAN   C614526   9.651   4.634   4.100 -0.0478  0.4621  0.0446
 1454DECAN   C714527   9.655   4.531   4.214 -0.8709 -0.4372 -0.7146
 1454DECAN   C814528   9.800   4.481   4.235 -0.5661  0.7967  0.2953
 1454DECAN   C914529   9.832   4.392   4.356  0.2280  0.4928 -0.1300
 1454DECAN  C1014530   9.961   4.309   4.341  0.0475  0.0926  0.4796
 1455DECAN   C114531   4.397   7.960   4.241  0.5032  0.1880 -0.4248
 1455DECAN   C214532   4.492   8.057   4.314  0.0584  0.2296  0.0986
 1455DECAN   C314533   4.552   8.006   4.447  0.0430 -0.3886 -0.1248
 1455DECAN   C414534   4.633   7.877   4.425  0.0254 -0.3996 -0.1231
 1455DECAN   C514535   4.729   7.836   4.538  0.0676  0.1234  0.0326
 1455DECAN   C614536   4.854   7.927   4.538  0.1075  0.0684 -0.1238
 1455DECAN   C714537   4.976   7.847   4.584 -0.0656 -0.0091  0.1987
 1455DECAN   C814538   5.102   7.934   4.603 -0.1852  0.1323  0.3358
 1455DECAN   C914539   5.153   8.019   4.485 -0.6535  0.4552  0.3587
 1455DECAN  C1014540   5.279   8.097   4.525  0.0523 -0.2417 -0.4506
 1456DECAN   C114541   5.240   5.137   7.721 -0.1151 -0.3417  0.5131
 1456DECAN   C214542   5.165   5.036   7.633  0.0575  0.4085 -0.5162
 1456DECAN   C314543   5.018   5.053   7.675  0.2584  0.0224  0.3700
 1456DECAN   C414544   4.924   4.971   7.584  0.1487  0.2872  0.2426
 1456DECAN   C514545   4.793   5.046   7.555 -0.0081 -0.5063 -1.1544
 1456DECAN   C614546   4.821   5.185   7.494 -0.5662  0.2060  0.1610
 1456DECAN   C714547   4.870   5.172   7.348 -0.2585  0.1208  0.2708
 1456DECAN   C814548   4.832   5.287   7.253  0.2348  0.0444 -0.0253
 1456DECAN   C914549   4.886   5.304   7.110 -0.5164  0.0636 -0.3103
 1456DECAN  C1014550   4.866   5.447   7.055  0.0821  0.2930  0.0562
 1457DECAN   C114551   5.010   8.442   7.079  0.4679 -0.9416  0.8493
 1457DECAN   C214552   4.965   8.558   7.169  0.4637  0.1203 -0.4818
 1457DECAN   C314553   4.872   8.663   7.106  0.1820  0.1568 -0.0116
 1457DECAN   C414554   4.922   8.716   6.970 -0.4168 -0.5290 -0.5082
 1457DECAN   C514555   4.827   8.827   6.923 -0.0472  0.0378  0.0679
 1457DECAN   C614556   4.871   8.908   6.800  0.1530 -0.0304  0.0942
 1457DECAN   C714557   4.775   9.024   6.766 -0.0478 -0.3176 -0.3217
 1457DECAN   C814558   4.839   9.100   6.648  0.4071 -0.2007 -0.0028
 1457DECAN   C914559   4.768   9.231   6.612  0.1436 -0.5145 -0.6610
 1457DECAN  C1014560   4.827   9.294   6.485 -0.7329 -0.1528 -0.9004
 1458DECAN   C114561   5.541   0.076  10.295  0.2009 -0.4064 -0.1125
 1458DECAN   C214562   5.645   0.090  10.182  0.1056  0.3908 -0.1096
 1458DECAN   C314563   5.590   0.116  10.040 -0.5208 -0.7599 -0.0890
 1458DECAN   C414564   5.712   0.124   9.947 -0.0335 -0.2267  0.5862
 1458DECAN   C514565   5.830   0.214   9.988  0.1802 -0.1245 -0.2257
 1458DECAN   C614566   5.937   0.236   9.880  0.6312  0.0739  0.2522
 1458DECAN   C714567   6.061   0.325   9.896  0.6449  0.0664  0.1888
 1458DECAN   C814568   6.015   0.469   9.926  0.3443 -0.0406  0.2373
 1458DECAN   C914569   6.125   0.576   9.925  0.6986 -0.4076 -0.3709
 1458DECAN  C1014570   6.241   0.540  10.020 -0.0631 -0.1009  0.6859
 1459DECAN   C114571   3.172   1.145  11.689 -0.1151 -0.3134 -0.2653
 1459DECAN   C214572   3.154   1.271  11.603 -0.2854  0.0155  0.2442
 1459DECAN   C314573   3.150   1.233  11.453 -0.0519  0.0586  0.2264
 1459DECAN   C414574   3.151   1.360  11.366 -0.2401  0.2288  0.4702
 1459DECAN   C514575   3.032   1.455  11.386 -0.4689  0.0079  0.1727
 1459DECAN   C614576   3.029   1.569  11.283  0.5952  0.1644  0.3008
 1459DECAN   C714577   3.126   1.684  11.313  0.3193  0.3038  0.6597
 1459DECAN   C814578   3.105   1.812  11.229 -0.3912 -0.2569 -0.0328
 1459DECAN   C914579   3.169   1.816  11.089 -0.5294  0.0192 -0.0877
 1459DECAN  C1014580   3.190   1.950  11.016  0.0064 -0.0880 -0.1332
 1460DECAN   C114581   7.393   8.771   8.718  0.1385 -0.3890 -0.2854
 1460DECAN   C214582   7.450   8.790   8.860 -0.2536 -0.4661 -0.1177
 1460DECAN   C314583   7.480   8.651   8.919  0.2152 -0.1630  0.3687
 1460DECAN   C414584   7.611   8.652   8.999  0.3498 -0.3624  0.1491
 1460DECAN   C514585   7.622   8.525   9.086  0.0644 -0.0416  0.6544
 1460DECAN   C614586   7.526   8.510   9.206 -0.4106 -0.0208  0.2759
 1460DECAN   C714587   7.549   8.591   9.334 -0.1047 -0.0839  0.2618
 1460DECAN   C814588   7.448   8.549   9.442 -0.1876  0.0786  0.2487
 1460DECAN   C914589   7.439   8.647   9.561 -0.2678  0.7114 -0.2759
 1460DECAN  C1014590   7.325   8.622   9.661  0.1099 -0.3511 -0.1003
 1461DECAN   C114591   6.782   6.863  13.109  0.1475  0.0910 -0.7646
 1461DECAN   C214592   6.803   6.728  13.039  0.3077 -0.2589 -0.0577
 1461DECAN   C314593   6.906   6.635  13.105  0.3020 -0.0766  0.2076
 1461DECAN   C414594   7.047   6.687  13.139  0.1040  0.4934  0.1679
 1461DECAN   C514595   7.149   6.582  13.186 -0.4052  0.2183  0.6671
 1461DECAN   C614596   7.268   6.652  13.255  0.2959 -0.2912 -0.0085
 1461DECAN   C714597   7.333   6.753  13.159  0.2762 -0.2879 -0.0188
 1461DECAN   C814598   7.449   6.839  13.213  0.4066 -0.1386 -0.5371
 1461DECAN   C914599   7.591   6.781  13.204  0.4452 -0.1365  0.0673
 1461DECAN  C1014600   7.701   6.871  13.265  0.5581 -0.0749 -0.2255
 1462DECAN   C114601   6.895   1.735   8.279  0.3883 -0.2309  0.0833
 1462DECAN   C214602   6.937   1.619   8.372 -0.1731 -0.5582 -0.0659
 1462DECAN   C314603   6.830   1.565   8.469 -0.2272 -0.1004  0.1353
 1462DECAN   C414604   6.872   1.459   8.573  0.2197 -0.0772 -0.0173
 1462DECAN   C514605   6.983   1.487   8.676  0.0366  0.0437  0.1499
 1462DECAN   C614606   6.999   1.373   8.778  0.0378 -0.3473 -0.2828
 1462DECAN   C714607   6.898   1.378   8.894  0.3506 -0.1561 -0.0188
 1462DECAN   C814608   6.901   1.513   8.969 -0.5437  0.0969 -0.4312
 1462DECAN   C914609   6.788   1.529   9.071  0.0114  0.3478  0.1528
 1462DECAN  C1014610   6.783   1.670   9.134 -0.1428  0.3459  0.1471
 1463DECAN   C114611   9.299   0.840  11.074 -0.0231 -0.9010  0.1781
 1463DECAN   C214612   9.164   0.877  11.009  0.3885  0.4311  0.0408
 1463DECAN   C314613   9.050   0.782  11.052  0.2200  0.3449 -0.5915
 1463DECAN   C414614   8.907   0.831  11.023 -0.2111 -0.5901 -0.0926
 1463DECAN   C514615   8.795   0.744  11.083 -0.2197 -0.0029  0.7564
 1463DECAN   C614616   8.658   0.806  11.051 -0.0028 -0.0564 -0.2953
 1463DECAN   C714617   8.540   0.734  11.120 -0.1966  0.0091 -0.5564
 1463DECAN   C814618   8.514   0.596  11.057  0.1761 -0.5628  0.5262
 1463DECAN   C914619   8.397   0.526  11.128 -0.0816 -0.0577  0.6031
 1463DECAN  C1014620   8.370   0.390  11.060 -0.1020  0.4356 -0.3933
 1464DECAN   C114621   2.434   7.360   5.835 -0.1117 -0.0176  0.3107
 1464DECAN   C214622   2.563   7.310   5.767 -0.2921 -0.4873  0.3074
 1464DECAN   C314623   2.695   7.351   5.836 -0.1884 -0.6948  0.2316
 1464DECAN   C414624   2.830   7.359   5.763 -0.5248  0.2374 -0.2949
 1464DECAN   C514625   2.940   7.380   5.869 -0.3002 -0.3779 -0.4057
 1464DECAN   C614626   3.082   7.384   5.811  0.0070  0.4290  0.3892
 1464DECAN   C714627   3.193   7.357   5.915  0.2726  0.2858  0.0717
 1464DECAN   C814628   3.190   7.471   6.018  0.2531 -0.1584  0.5636
 1464DECAN   C914629   3.116   7.450   6.152 -0.1400 -0.1024  0.3553
 1464DECAN  C1014630   3.202   7.369   6.250 -0.0839 -0.5135 -0.0300
 1465DECAN   C114631   8.215   6.198   5.181  0.5174 -0.1529 -0.0607
 1465DECAN   C214632   8.070   6.239   5.214  0.4332 -0.2099 -0.3597
 1465DECAN   C314633   7.972   6.261   5.097 -0.2913  0.1347  0.3020
 1465DECAN   C414634   7.887   6.137   5.067 -0.1070  0.1611 -0.3441
 1465DECAN   C514635   7.944   5.994   5.055  0.0513  0.1925  0.0277
 1465DECAN   C614636   7.835   5.889   5.026  0.4104 -0.3021  0.4429
 1465DECAN   C714637   7.721   5.884   5.129  0.0091  0.3375  0.0367
 1465DECAN   C814638   7.625   6.005   5.127 -0.6607 -0.1830  0.1623
 1465DECAN   C914639   7.498   5.985   5.212 -0.7631  0.0162  0.0559
 1465DECAN  C1014640   7.404   6.105   5.190 -0.4987  0.2435  0.1569
 1466DECAN   C114641   6.366   0.077   9.717  0.4938 -0.3429 -0.4514
 1466DECAN   C214642   6.246   0.029   9.800  0.6670  0.5645  0.3514
 1466DECAN   C314643   6.272  11.159   9.901 -0.2344 -0.3029 -0.3787
 1466DECAN   C414644   6.137  11.101   9.950 -0.0503 -0.4325 -0.0237
 1466DECAN   C514645   6.161  10.972  10.031 -0.4047 -0.2285  0.4100
 1466DECAN   C614646   6.030  10.929  10.100 -0.8394 -0.0831 -0.3013
 1466DECAN   C714647   6.054  10.835  10.220  0.1933  0.2724 -0.2218
 1466DECAN   C814648   6.113  10.704  10.164  0.4441  0.3033 -0.0334
 1466DECAN   C914649   6.211  10.715  10.046  0.3514  0.0814 -0.1325
 1466DECAN  C1014650   6.264  10.576  10.006  0.2093 -0.2553  0.8158
 1467DECAN   C114651   4.213   1.870   7.159  0.3772  0.1482 -0.5822
 1467DECAN   C214652   4.315   1.756   7.142  0.0571 -0.2649  0.2102
 1467DECAN   C314653   4.255   1.614   7.148 -0.3076 -0.1172  0.0980
 1467DECAN   C414654   4.238   1.568   7.294 -0.4467  0.7640  0.3630
 1467DECAN   C514655   4.365   1.569   7.382 -0.2325 -0.1230  0.0734
 1467DECAN   C614656   4.343   1.524   7.527 -0.0561  0.0040  0.1414
 1467DECAN   C714657   4.197   1.526   7.577  0.0844  0.6117  0.5318
 1467DECAN   C814658   4.128   1.663   7.560 -0.5790  0.2524  0.2908
 1467DECAN   C914659   4.221   1.771   7.617 -0.3627  0.2249 -0.0096
 1467DECAN  C1014660   4.149   1.907   7.612 -0.5375  0.1195 -0.3246
 1468DECAN   C114661   5.526   7.535   6.498 -0.6518  0.8011 -0.0148
 1468DECAN   C214662   5.481   7.535   6.645 -0.2630  0.4590  0.1073
 1468DECAN   C314663   5.391   7.650   6.694 -0.3377  0.4737 -0.0643
 1468DECAN   C414664   5.261   7.660   6.612 -0.7383  0.8510  0.6037
 1468DECAN   C514665   5.276   7.667   6.459  0.8769  0.0187  0.6954
 1468DECAN   C614666   5.295   7.811   6.408  0.6914 -0.2917 -0.2840
 1468DECAN   C714667   5.299   7.819   6.254 -0.1540 -0.0599 -0.3025
 1468DECAN   C814668   5.322   7.947   6.173  0.0604  0.3675  0.4215
 1468DECAN   C914669   5.202   8.044   6.164  0.0722  0.3740  0.3351
 1468DECAN  C1014670   5.230   8.181   6.101  0.3373  0.2823  0.2521
 1469DECAN   C114671   4.205   8.621   7.390  0.1036  0.0935 -0.5418
 1469DECAN   C214672   4.277   8.555   7.271  0.9890 -0.1170  0.1031
 1469DECAN   C314673   4.239   8.408   7.242  0.9794  0.0031 -0.5091
 1469DECAN   C414674   4.288   8.308   7.349 -0.6167 -0.1867  0.0735
 1469DECAN   C514675   4.291   8.159   7.313 -0.3141 -0.0670 -0.4123
 1469DECAN   C614676   4.293   8.072   7.440 -0.1352  0.4101 -0.0880
 1469DECAN   C714677   4.180   8.104   7.539  0.0528 -0.0086  0.2657
 1469DECAN   C814678   4.210   8.236   7.612  0.3634  0.0841 -0.0327
 1469DECAN   C914679   4.092   8.272   7.705  0.4214 -0.0651  0.0991
 1469DECAN  C1014680   4.127   8.396   7.789 -0.4555  0.2395  0.0245
 1470DECAN   C114681   9.160   5.539  13.637 -0.3743  0.3506  0.2263
 1470DECAN   C214682   9.243   5.604  13.749  0.3968  0.1202 -0.2092
 1470DECAN   C314683   9.212   5.754  13.747  0.1896  0.0731 -0.5187
 1470DECAN   C414684   9.306   5.829  13.843 -0.4483 -0.1544  0.2966
 1470DECAN   C514685   9.448   5.868  13.797 -0.6743  0.3355 -0.0086
 1470DECAN   C614686   9.527   5.921  13.918 -0.3637  0.0257 -0.0723
 1470DECAN   C714687   9.670   5.973  13.892 -0.0563 -0.5377  0.4539
 1470DECAN   C814688   9.751   6.026  14.012  0.4235  0.0504 -0.1226
 1470DECAN   C914689   9.859   5.929  14.063  0.0468 -0.1823  0.2489
 1470DECAN  C1014690   9.904   5.955  14.208 -0.2220 -0.7095  0.4239
 1471DECAN   C114691   8.920   7.000   7.732 -0.0262  0.2965 -0.8458
 1471DECAN   C214692   8.840   6.928   7.841 -0.0020  0.8597 -0.4493
 1471DECAN   C314693   8.750   7.025   7.919 -0.3684  0.0424  0.1634
 1471DECAN   C414694   8.834   7.151   7.948  0.0057 -0.2325  0.2852
 1471DECAN   C514695   8.791   7.262   8.046  0.1549  0.3259 -0.2771
 1471DECAN   C614696   8.907   7.356   8.083  0.4566 -0.1415 -0.0200
 1471DECAN   C714697   9.023   7.285   8.154  0.5942 -0.1435 -0.2486
 1471DECAN   C814698   9.134   7.387   8.186  0.0869  0.1855  0.4854
 1471DECAN   C914699   9.270   7.335   8.234  0.2375 -0.0207 -0.1491
 1471DECAN  C1014700   9.275   7.291   8.382 -0.4247 -0.3151 -0.2096
 1472DECAN   C114701   4.062   7.983  10.664 -0.2450  0.0237 -0.3562
 1472DECAN   C214702   4.042   7.888  10.544 -0.7357 -0.4400  0.0918
 1472DECAN   C314703   3.992   7.749  10.588 -0.1155 -0.6406  0.1752
 1472DECAN   C414704   4.009   7.641  10.479  0.0895 -0.2460 -0.1917
 1472DECAN   C514705   3.921   7.521  10.521 -0.3728  0.2797  0.3702
 1472DECAN   C614706   3.857   7.442  10.405 -0.4117  0.1101  0.5073
 1472DECAN   C714707   3.944   7.380  10.294 -0.1896  0.3978  0.5203
 1472DECAN   C814708   4.047   7.277  10.343 -0.0379  0.3118  0.0327
 1472DECAN   C914709   4.131   7.210  10.233  0.1672  0.2207  0.2436
 1472DECAN  C1014710   4.201   7.307  10.135 -0.4019 -0.0019 -0.3855
 1473DECAN   C114711   2.782   9.422  15.123 -0.3940 -0.1046  0.0171
 1473DECAN   C214712   2.778   9.277  15.071 -0.0122  0.0216 -0.3724
 1473DECAN   C314713   2.905   9.216  15.009  0.1247  0.0478 -0.1203
 1473DECAN   C414714   2.891   9.079  14.939 -0.4229 -0.0496  0.1760
 1473DECAN   C514715   2.894   8.961  15.037  0.6655 -0.1387  0.0398
 1473DECAN   C614716   2.895   8.827  14.961  0.4551 -0.5928  0.8216
 1473DECAN   C714717   3.017   8.790  14.874  0.1849 -0.5440  0.4179
 1473DECAN   C814718   3.009   8.646  14.819  0.0622 -0.3968  0.0552
 1473DECAN   C914719   2.942   8.545  14.913  0.1991 -0.8797 -0.3621
 1473DECAN  C1014720   2.790   8.567  14.923  0.3585  0.2015 -0.1495
 1474DECAN   C114721   3.403   0.419   7.122  0.1704 -0.1235  0.0031
 1474DECAN   C214722   3.551   0.406   7.163  0.3209 -0.2052 -0.5506
 1474DECAN   C314723   3.641   0.524   7.121  0.0361  0.1156 -0.2727
 1474DECAN   C414724   3.616   0.560   6.973 -0.3859  0.3654 -0.1416
 1474DECAN   C514725   3.712   0.666   6.916 -0.2956  0.1880 -0.3178
 1474DECAN   C614726   3.680   0.801   6.982  0.5573  0.1766  0.1310
 1474DECAN   C714727   3.770   0.908   6.917 -0.0699  0.2507 -0.6358
 1474DECAN   C814728   3.724   0.932   6.772 -0.4111  0.4060 -0.5033
 1474DECAN   C914729   3.767   0.838   6.658 -0.0103 -0.2162  0.1500
 1474DECAN  C1014730   3.710   0.891   6.525  0.1883 -0.3830 -0.0003
 1475DECAN   C114731  10.722   1.582   7.771  0.3990  0.5447  0.3416
 1475DECAN   C214732  10.742   1.508   7.637  0.0058  0.2271  0.4576
 1475DECAN   C314733  10.632   1.541   7.535  0.2255 -0.2628  0.0601
 1475DECAN   C414734  10.494   1.503   7.592  0.0178  0.3876  0.0015
 1475DECAN   C514735  10.383   1.473   7.490 -0.2011  0.4967  0.2086
 1475DECAN   C614736  10.423   1.362   7.391 -0.2257  0.4919  0.2037
 1475DECAN   C714737  10.326   1.320   7.279 -0.1692  0.8082  0.0350
 1475DECAN   C814738  10.200   1.250   7.332  0.3251 -0.1979 -0.0802
 1475DECAN   C914739  10.118   1.179   7.223 -0.1122  0.0191  0.1046
 1475DECAN  C1014740   9.982   1.120   7.266 -0.2073 -0.0055 -0.2203
 1476DECAN   C114741   1.930   2.612   5.975 -0.1634  0.2924  0.5041
 1476DECAN   C214742   1.950   2.762   5.950  0.7365  0.0523 -0.2910
 1476DECAN   C314743   1.978   2.834   6.083  0.0597  0.0648 -0.1473
 1476DECAN   C414744   1.980   2.988   6.070  0.3065  0.0364 -0.4715
 1476DECAN   C514745   1.844   3.055   6.044  0.1359  0.0222  0.3777
 1476DECAN   C614746   1.851   3.209   6.051 -0.0863  0.0492  0.0173
 1476DECAN   C714747   1.972   3.273   5.982  0.1609 -0.0112  0.3924
 1476DECAN   C814748   2.106   3.240   6.050  0.1757 -0.3969  0.1794
 1476DECAN   C914749   2.241   3.298   6.000  0.3389 -0.4890  0.5104
 1476DECAN  C1014750   2.365   3.280   6.089  0.6062  0.3572  0.3163
 1477DECAN   C114751  10.845   3.861   9.485 -0.2145 -0.7719  0.6050
 1477DECAN   C214752  10.963   3.775   9.437  0.3850  0.3817 -0.0263
 1477DECAN   C314753  10.978   3.642   9.514 -0.4281 -0.0523 -0.6003
 1477DECAN   C414754  10.860   3.543   9.509 -0.1904 -0.3941  0.3454
 1477DECAN   C514755  10.889   3.419   9.595  0.1763 -0.3249  0.3257
 1477DECAN   C614756  10.787   3.304   9.604  0.0151 -0.1608  0.6257
 1477DECAN   C714757  10.763   3.245   9.464 -0.2760  0.0181  0.5990
 1477DECAN   C814758  10.660   3.131   9.456  0.1270 -0.3480  0.5823
 1477DECAN   C914759  10.668   3.061   9.319  0.1121 -0.3966  0.6058
 1477DECAN  C1014760  10.606   2.922   9.303  0.1298 -0.3912  0.4871
 1478DECAN   C114761   5.314   9.801  13.725  0.2617 -0.0306  0.4238
 1478DECAN   C214762   5.201   9.696  13.734 -0.0950  0.3504  0.4169
 1478DECAN   C314763   5.065   9.769  13.723 -0.0720  0.3036 -0.1966
 1478DECAN   C414764   4.961   9.687  13.644 -0.5580  0.3435  0.4018
 1478DECAN   C514765   4.947   9.543  13.698  0.2766 -0.0303 -0.3501
 1478DECAN   C614766   4.844   9.456  13.626 -0.1238  0.1154  0.0410
 1478DECAN   C714767   4.705   9.521  13.608 -0.1602  0.1400  0.4070
 1478DECAN   C814768   4.597   9.447  13.526 -0.2512  0.2221  0.4518
 1478DECAN   C914769   4.472   9.533  13.502 -0.0851  0.2591 -0.3014
 1478DECAN  C1014770   4.362   9.460  13.422  0.7028 -0.5513 -0.6625
 1479DECAN   C114771   3.696   6.971  10.222 -0.3920 -0.1875  0.0689
 1479DECAN   C214772   3.790   6.874  10.298  0.1316  0.1887 -0.0940
 1479DECAN   C314773   3.724   6.742  10.341 -0.2086  0.2624 -0.3785
 1479DECAN   C414774   3.593   6.748  10.422 -0.3922  0.6932 -0.7079
 1479DECAN   C514775   3.559   6.611  10.483  0.3378  1.0670  0.5560
 1479DECAN   C614776   3.423   6.604  10.555  0.3585  0.7609  0.5650
 1479DECAN   C714777   3.400   6.461  10.608  0.0953  0.7173  0.3401
 1479DECAN   C814778   3.257   6.452  10.664 -0.0467 -0.4196 -0.1801
 1479DECAN   C914779   3.225   6.320  10.735  0.1899 -0.3175  0.1179
 1479DECAN  C1014780   3.316   6.290  10.856  0.5025 -0.5325 -0.1690
 1480DECAN   C114781  10.531   2.470   8.305  0.1858 -0.2794 -0.3736
 1480DECAN   C214782  10.385   2.481   8.350  0.4534 -0.5158  0.5848
 1480DECAN   C314783  10.334   2.391   8.464  0.1363  0.1478  0.9756
 1480DECAN   C414784  10.404   2.253   8.467 -0.1619 -0.0465 -0.4117
 1480DECAN   C514785  10.556   2.277   8.477 -0.1985 -0.2997  0.9287
 1480DECAN   C614786  10.644   2.157   8.513 -0.0099 -0.7018 -0.7677
 1480DECAN   C714787  10.797   2.175   8.518 -0.1039 -0.0487 -0.0679
 1480DECAN   C814788  10.874   2.048   8.559  0.5572  0.4447  0.2350
 1480DECAN   C914789  10.830   1.933   8.467  0.2599  0.2584  0.6060
 1480DECAN  C1014790  10.889   1.795   8.498  0.8993  0.4139  0.0929
 1481DECAN   C114791   8.770   1.672   5.936 -0.2262  0.0695 -0.1721
 1481DECAN   C214792   8.896   1.760   5.948  0.2461 -0.5157 -0.7870
 1481DECAN   C314793   9.009   1.696   6.029 -0.4336 -0.4542  0.2238
 1481DECAN   C414794   9.048   1.550   5.997  0.5489 -0.1562  0.0099
 1481DECAN   C514795   8.924   1.459   5.983  0.5139 -0.0356 -0.4648
 1481DECAN   C614796   8.975   1.315   5.965 -0.1299 -0.3150 -0.0849
 1481DECAN   C714797   8.888   1.230   5.872 -0.0418 -1.3860  0.7886
 1481DECAN   C814798   8.740   1.263   5.900  0.0714  0.3581 -0.4870
 1481DECAN   C914799   8.652   1.169   5.815  0.6082 -0.1572 -0.4839
 1481DECAN  C1014800   8.504   1.181   5.857  0.6981 -0.0644 -0.1863
 1482DECAN   C114801   3.297   4.111   8.040  0.4288 -0.5079 -0.3117
 1482DECAN   C214802   3.150   4.121   7.994  0.3307  0.4059  0.1739
 1482DECAN   C314803   3.074   4.209   8.095  0.1692  0.3736  0.0815
 1482DECAN   C414804   2.935   4.243   8.039 -0.0144 -0.0948  0.2493
 1482DECAN   C514805   2.840   4.122   8.040  0.0683 -0.1632 -0.2656
 1482DECAN   C614806   2.766   4.122   8.175  0.6504 -0.2922  0.0567
 1482DECAN   C714807   2.648   4.023   8.180  0.3616  0.0434 -0.0828
 1482DECAN   C814808   2.604   3.975   8.319 -0.5025  0.1002 -0.3336
 1482DECAN   C914809   2.511   4.069   8.399 -0.8625 -0.0632 -0.5571
 1482DECAN  C1014810   2.493   4.045   8.550 -0.0897  0.0584 -0.4411
 1483DECAN   C114811   2.332   8.063   6.756  0.0212 -0.2832 -0.3395
 1483DECAN   C214812   2.278   8.169   6.854  0.7708  0.0735 -0.3054
 1483DECAN   C314813   2.331   8.312   6.831  0.3036  0.2709 -0.1557
 1483DECAN   C414814   2.259   8.424   6.907  0.1848  0.2443 -0.2272
 1483DECAN   C514815   2.327   8.561   6.891  0.5852  0.0951  0.1691
 1483DECAN   C614816   2.269   8.685   6.961  0.2709 -0.0248  0.1211
 1483DECAN   C714817   2.356   8.812   6.949  0.3994 -0.0607  0.6342
 1483DECAN   C814818   2.289   8.935   7.011  0.0166  0.1705 -0.2216
 1483DECAN   C914819   2.363   9.067   6.982  0.0328  0.2912  0.3565
 1483DECAN  C1014820   2.269   9.182   7.024  0.0671  0.4217  0.0788
 1484DECAN   C114821   6.236   4.964   7.323 -0.3621  0.2905 -0.2185
 1484DECAN   C214822   6.258   4.874   7.200 -0.2595  0.5999 -0.4284
 1484DECAN   C314823   6.166   4.752   7.185 -0.3582  0.6111  0.0879
 1484DECAN   C414824   6.199   4.660   7.065 -0.3299 -0.1309  0.6556
 1484DECAN   C514825   6.153   4.514   7.083 -0.1765 -0.2423  0.1456
 1484DECAN   C614826   6.087   4.458   6.956  0.1762 -0.1252 -0.0891
 1484DECAN   C714827   6.045   4.314   6.989  0.1506 -0.0433  0.2319
 1484DECAN   C814828   5.921   4.289   7.077 -0.0861 -0.0832 -0.1129
 1484DECAN   C914829   5.800   4.375   7.037  0.0765 -0.0407 -0.5194
 1484DECAN  C1014830   5.665   4.306   7.067  0.2210 -0.0298  0.1737
 1485DECAN   C114831   7.010   3.531   7.396 -0.0787  0.4683  0.0730
 1485DECAN   C214832   6.921   3.629   7.317 -0.2588  0.0513 -0.2410
 1485DECAN   C314833   6.983   3.769   7.304  0.4689 -0.2797 -0.3991
 1485DECAN   C414834   6.874   3.878   7.299  0.6961 -0.0163  0.3429
 1485DECAN   C514835   6.933   4.020   7.283  0.3640  0.0505 -0.2854
 1485DECAN   C614836   7.021   4.053   7.404  0.3190 -0.7061 -0.0377
 1485DECAN   C714837   7.134   4.156   7.384 -0.3414  0.0105 -0.1595
 1485DECAN   C814838   7.244   4.125   7.281 -0.7679 -0.2300 -0.5444
 1485DECAN   C914839   7.325   3.998   7.313 -0.2222  0.1661 -0.3276
 1485DECAN  C1014840   7.405   3.946   7.192  0.5104  0.6232 -0.0429
 1486DECAN   C114841   3.970  10.882  13.861  0.8012 -0.4386  0.2710
 1486DECAN   C214842   4.109  10.932  13.818  0.3787  0.2877 -0.2612
 1486DECAN   C314843   4.219  10.956  13.923  0.5561 -0.8877 -0.1737
 1486DECAN   C414844   4.335  11.047  13.880 -0.0507  0.0922  0.2483
 1486DECAN   C514845   4.445  11.053  13.988 -0.0451  0.0942  0.2436
 1486DECAN   C614846   4.494  10.915  14.035  0.1579  0.0125 -0.1958
 1486DECAN   C714847   4.429  10.866  14.166  0.8231 -0.3046  0.0223
 1486DECAN   C814848   4.444  10.958  14.289 -0.1527  0.1644 -0.1990
 1486DECAN   C914849   4.403  10.874  14.411  0.1388 -0.0142 -0.2218
 1486DECAN  C1014850   4.260  10.817  14.399  0.1008  0.0336  0.0074
 1487DECAN   C114851   8.814   6.817   6.592 -0.0205  0.0335 -0.1946
 1487DECAN   C214852   8.923   6.714   6.625 -0.1894 -0.0152  0.2176
 1487DECAN   C314853   8.919   6.660   6.769  0.1671 -0.0703  0.2083
 1487DECAN   C414854   9.028   6.554   6.797  0.0656 -0.2918 -0.2247
 1487DECAN   C514855   9.150   6.595   6.881 -0.2753  0.2770 -0.0003
 1487DECAN   C614856   9.190   6.501   6.997 -0.0214 -0.5325 -0.7387
 1487DECAN   C714857   9.321   6.554   7.058 -0.3475 -0.9232  0.3215
 1487DECAN   C814858   9.353   6.499   7.198  1.0444 -1.1196 -0.0662
 1487DECAN   C914859   9.458   6.574   7.283 -0.0064  0.6367 -0.2726
 1487DECAN  C1014860   9.598   6.591   7.223  0.1559 -0.2227 -0.1505
 1488DECAN   C114861   3.514   4.400   4.826 -0.3391 -0.2562  0.2540
 1488DECAN   C214862   3.636   4.465   4.757 -0.2082 -0.5237  0.2339
 1488DECAN   C314863   3.631   4.400   4.618 -0.3023 -0.3814  0.1707
 1488DECAN   C414864   3.624   4.246   4.604  0.3969 -0.4395  0.4512
 1488DECAN   C514865   3.482   4.200   4.642  0.1436 -0.0863 -0.0559
 1488DECAN   C614866   3.484   4.046   4.644 -0.6569 -0.0935  0.4151
 1488DECAN   C714867   3.346   3.985   4.676 -0.8522  0.0665 -0.1187
 1488DECAN   C814868   3.334   3.832   4.685 -0.1250  0.0310  0.3436
 1488DECAN   C914869   3.192   3.771   4.691 -0.1666  0.1295  0.3731
 1488DECAN  C1014870   3.111   3.772   4.560  0.4577 -0.4580 -0.0253
 1489DECAN   C114871   8.057   9.584  13.737 -0.2124 -0.2414 -0.4892
 1489DECAN   C214872   8.137   9.457  13.705 -0.2881 -0.4238  0.0331
 1489DECAN   C314873   8.117   9.343  13.807  0.5628 -0.6441 -0.0349
 1489DECAN   C414874   8.164   9.379  13.949  0.5431 -0.5391 -0.0551
 1489DECAN   C514875   8.167   9.276  14.064 -0.2662 -0.4717  0.0334
 1489DECAN   C614876   8.201   9.326  14.205  0.0585 -0.6318  0.0138
 1489DECAN   C714877   8.329   9.409  14.224 -0.4510  0.2207 -0.2070
 1489DECAN   C814878   8.314   9.540  14.144 -0.9783  0.2544 -0.0575
 1489DECAN   C914879   8.454   9.596  14.109 -0.7030 -0.1765  0.3469
 1489DECAN  C1014880   8.449   9.700  13.997  0.6499 -0.2737  0.1778
 1490DECAN   C114881   4.654   7.222   5.160 -0.0237 -0.1633 -0.4476
 1490DECAN   C214882   4.737   7.334   5.093  0.1837 -0.0209  0.0468
 1490DECAN   C314883   4.880   7.361   5.146 -0.1004  0.5401  0.5452
 1490DECAN   C414884   4.960   7.231   5.127 -0.0676  0.6465 -0.0964
 1490DECAN   C514885   4.956   7.160   4.991 -0.0902  0.1241  0.1719
 1490DECAN   C614886   5.100   7.131   4.943 -0.0988 -0.2159  0.3466
 1490DECAN   C714887   5.134   7.068   4.807  0.3993  0.5511  0.1068
 1490DECAN   C814888   5.285   7.041   4.795  0.3711  0.3985  0.0967
 1490DECAN   C914889   5.363   7.172   4.815  0.6169  0.2371  0.1956
 1490DECAN  C1014890   5.330   7.244   4.947 -0.0310  0.5105 -0.1156
 1491DECAN   C114891   3.010   5.103   9.695 -0.0586  0.0864 -0.5523
 1491DECAN   C214892   2.921   5.186   9.789 -0.0799 -0.4113 -0.1332
 1491DECAN   C314893   2.982   5.318   9.839 -0.2262 -0.5067  0.3032
 1491DECAN   C414894   2.912   5.388   9.957 -0.1046 -0.6993  0.4888
 1491DECAN   C514895   2.958   5.529   9.999 -0.2178 -0.7076  0.6444
 1491DECAN   C614896   3.107   5.522  10.036 -0.0053  0.4578  0.0435
 1491DECAN   C714897   3.161   5.638  10.121  0.2619  0.3911 -0.0308
 1491DECAN   C814898   3.315   5.636  10.118  0.2421  0.0143 -0.9194
 1491DECAN   C914899   3.384   5.771  10.143 -0.6371  0.2959  0.0624
 1491DECAN  C1014900   3.537   5.764  10.135 -0.6913 -0.1536 -0.7244
 1492DECAN   C114901   1.388   6.219  13.051  1.0313 -0.2678  0.7080
 1492DECAN   C214902   1.377   6.070  13.016  0.1354  0.0425 -0.4075
 1492DECAN   C314903   1.418   6.045  12.869  0.0023 -0.2519 -0.3965
 1492DECAN   C414904   1.337   6.124  12.764  0.2261  0.6280  0.0819
 1492DECAN   C514905   1.400   6.095  12.627  0.8663 -0.3640  0.5720
 1492DECAN   C614906   1.416   5.946  12.593  0.1744 -0.2687 -0.1967
 1492DECAN   C714907   1.531   5.904  12.686  0.3382 -0.2997 -0.4133
 1492DECAN   C814908   1.571   5.757  12.663 -0.2186 -0.5247  0.0469
 1492DECAN   C914909   1.670   5.701  12.767  0.2651  0.0119 -0.1177
 1492DECAN  C1014910   1.734   5.564  12.738 -0.1078 -0.2292  0.1836
 1493DECAN   C114911   1.809   9.032  12.411 -0.2618 -0.3729  0.2265
 1493DECAN   C214912   1.691   9.115  12.357  0.1322 -0.1424 -0.2865
 1493DECAN   C314913   1.721   9.266  12.347 -0.2434 -0.0299  0.2822
 1493DECAN   C414914   1.619   9.345  12.264 -0.3731  0.0393  0.5050
 1493DECAN   C514915   1.474   9.315  12.306 -0.4098  0.2902  0.5603
 1493DECAN   C614916   1.360   9.368  12.217  0.1024  0.2405 -0.1327
 1493DECAN   C714917   1.223   9.299  12.237  0.2787 -0.0792 -0.0192
 1493DECAN   C814918   1.216   9.148  12.206  0.2476 -0.1199  0.1933
 1493DECAN   C914919   1.256   9.107  12.064 -0.2123 -0.0723  0.0475
 1493DECAN  C1014920   1.242   8.956  12.035 -0.3843  0.0192 -0.3571
 1494DECAN   C114921   4.978   1.381  11.811 -0.8262 -0.2191  0.2988
 1494DECAN   C214922   5.020   1.291  11.929 -0.2323 -0.2801  0.0436
 1494DECAN   C314923   4.920   1.273  12.045  0.0370  0.2857  0.3679
 1494DECAN   C414924   4.980   1.187  12.158  0.4930 -0.3086 -0.3122
 1494DECAN   C514925   5.063   1.264  12.263 -0.1853 -0.4922  0.3697
 1494DECAN   C614926   5.145   1.160  12.342  0.5602 -0.2562 -0.0860
 1494DECAN   C714927   5.219   1.242  12.449  0.2733 -0.7297  0.4763
 1494DECAN   C814928   5.143   1.248  12.583 -0.2031 -0.6355  0.2023
 1494DECAN   C914929   5.218   1.325  12.693 -0.3772  0.1974 -0.2527
 1494DECAN  C1014930   5.166   1.342  12.837  0.3064 -0.1987  0.0433
 1495DECAN   C114931   6.943   9.632  13.385 -0.1037  0.2050 -0.3963
 1495DECAN   C214932   7.059   9.557  13.319  0.1830  0.0610  0.2623
 1495DECAN   C314933   7.165   9.660  13.277  0.3761 -0.0642  0.4363
 1495DECAN   C414934   7.293   9.605  13.211  0.1340 -0.3380  0.1923
 1495DECAN   C514935   7.371   9.709  13.130 -0.3524 -0.2420 -0.1559
 1495DECAN   C614936   7.521   9.681  13.151 -0.2090  0.4904 -0.1772
 1495DECAN   C714937   7.615   9.798  13.116  0.1193  0.1930 -0.2949
 1495DECAN   C814938   7.602   9.925  13.203  0.7568 -0.0527  0.1761
 1495DECAN   C914939   7.629   9.900  13.352  0.7124 -0.0432  0.1864
 1495DECAN  C1014940   7.588  10.027  13.430 -0.1380 -0.1033 -0.1631
 1496DECAN   C114941   8.089   9.984  13.688  0.4652 -0.1251  0.0884
 1496DECAN   C214942   7.951   9.918  13.709  0.4331 -0.1553 -0.2044
 1496DECAN   C314943   7.880   9.928  13.846  0.2983 -0.9220 -0.2103
 1496DECAN   C414944   7.744   9.857  13.851 -0.2419  0.1045  0.1172
 1496DECAN   C514945   7.653   9.890  13.970 -0.0650  0.8580  0.0462
 1496DECAN   C614946   7.501   9.873  13.947  0.0072  0.1639  0.0563
 1496DECAN   C714947   7.394   9.906  14.053  0.0425 -0.3592  0.2567
 1496DECAN   C814948   7.248   9.907  14.003  0.0991 -0.0968  0.0942
 1496DECAN   C914949   7.186   9.767  14.014  0.2347 -0.1823 -0.2085
 1496DECAN  C1014950   7.041   9.760  13.960  0.0872  0.4066  0.1068
 1497DECAN   C114951   6.000   1.781   6.375 -0.5186 -1.1000  0.0549
 1497DECAN   C214952   6.066   1.748   6.510 -0.4249 -0.3405  0.1949
 1497DECAN   C314953   6.021   1.849   6.618 -0.0912  0.3919 -0.3424
 1497DECAN   C414954   6.114   1.869   6.739  0.1285 -0.1213 -0.4238
 1497DECAN   C514955   6.061   1.980   6.831 -0.4340 -0.4084 -0.3940
 1497DECAN   C614956   6.039   2.115   6.760 -0.0187  0.0200  0.2699
 1497DECAN   C714957   5.955   2.222   6.831 -0.2948  0.5075 -0.7625
 1497DECAN   C814958   6.033   2.349   6.871  0.3194 -0.1717  0.2530
 1497DECAN   C914959   5.948   2.446   6.955  0.1085  0.0785 -0.2399
 1497DECAN  C1014960   5.843   2.520   6.870 -0.0746  0.3017  0.1788
 1498DECAN   C114961  10.823   9.552   9.651  0.4811 -0.6375 -0.1184
 1498DECAN   C214962  10.900   9.673   9.707  0.5274 -0.4915 -0.4954
 1498DECAN   C314963  11.011   9.708   9.606  0.0419 -0.3189 -0.9772
 1498DECAN   C414964  11.090   9.834   9.646 -0.6682 -0.2727  0.3583
 1498DECAN   C514965  11.187   9.876   9.534 -0.5519 -0.1062  0.5207
 1498DECAN   C614966  11.116   9.929   9.408  0.0843 -0.3943  0.0336
 1498DECAN   C714967  11.001  10.028   9.432  0.4105  0.0457 -0.2078
 1498DECAN   C814968  10.926  10.054   9.300 -0.0616  0.0368  0.0554
 1498DECAN   C914969  10.846  10.185   9.292 -0.6430 -0.3524 -0.5096
 1498DECAN  C1014970  10.735  10.192   9.399 -0.0705  0.5192  0.0386
 1499DECAN   C114971   7.945   3.567   7.832  0.0405 -0.2300  0.1313
 1499DECAN   C214972   7.837   3.565   7.722 -0.0899  0.4214  0.2405
 1499DECAN   C314973   7.886   3.541   7.578 -0.2394 -0.0296  0.2651
 1499DECAN   C414974   7.978   3.651   7.523  0.3268 -0.5061  0.2372
 1499DECAN   C514975   8.103   3.684   7.606  0.5132  0.3952 -0.3798
 1499DECAN   C614976   8.181   3.815   7.586  0.8827  0.3315  0.5944
 1499DECAN   C714977   8.236   3.814   7.442 -0.5146  0.4962  0.0486
 1499DECAN   C814978   8.301   3.946   7.397 -0.4996  0.4684 -0.0117
 1499DECAN   C914979   8.389   3.997   7.513  0.2312  0.2282 -0.4491
 1499DECAN  C1014980   8.351   4.121   7.596 -0.4827 -0.6875  0.6119
 1500DECAN   C114981   3.200   5.692  14.634  0.2478 -0.3100  0.6137
 1500DECAN   C214982   3.167   5.679  14.784  0.3371  0.0725  0.6672
 1500DECAN   C314983   3.037   5.744  14.833 -0.0525 -0.1802 -0.0247
 1500DECAN   C414984   3.027   5.732  14.986 -0.0552 -0.9115 -0.0823
 1500DECAN   C514985   2.887   5.767  15.038  0.2134  0.2070 -0.0969
 1500DECAN   C614986   2.852   5.907  14.984 -0.1853  0.2202  0.1849
 1500DECAN   C714987   2.959   6.013  15.016  0.1485  0.0322 -0.3019
 1500DECAN   C814988   2.927   6.153  14.959 -0.0945  0.2177  0.2765
 1500DECAN   C914989   2.820   6.238  15.029 -0.2785  0.3179 -0.1196
 1500DECAN  C1014990   2.856   6.251  15.178  0.5851  0.5546 -0.3480
 1501DECAN   C114991   6.979   9.385   9.755 -0.7412  0.2681  0.6583
 1501DECAN   C214992   7.016   9.502   9.663 -0.6779  0.2011  0.5993
 1501DECAN   C314993   6.954   9.487   9.523  0.4555  0.2386  0.0790
 1501DECAN   C414994   7.007   9.582   9.414  0.3261  0.1175 -0.0912
 1501DECAN   C514995   6.957   9.552   9.271 -0.0975  0.3839  0.0020
 1501DECAN   C614996   6.991   9.661   9.169 -0.1706  0.5938  0.1993
 1501DECAN   C714997   6.944   9.632   9.025  0.8817  0.6737 -0.1740
 1501DECAN   C814998   6.946   9.764   8.947  0.5227  0.5040 -0.4753
 1501DECAN   C914999   6.879   9.888   9.010  0.1811  0.1546 -0.1486
 1501DECAN  C1015000   6.886  10.009   8.915  0.1633  0.0727 -0.2528
 1502DECAN   C115001   5.973   3.618   6.841  0.1965  0.1828  0.0870
 1502DECAN   C215002   5.936   3.715   6.954  0.2961  0.0852  0.2030
 1502DECAN   C315003   6.055   3.798   7.006  0.1304  0.6178 -0.2478
 1502DECAN   C415004   6.026   3.891   7.125  0.4121  0.1243  0.2100
 1502DECAN   C515005   6.155   3.952   7.184  0.5875 -0.1883  0.1530
 1502DECAN   C615006   6.129   4.023   7.318 -0.1254 -0.0401 -0.0613
 1502DECAN   C715007   6.258   4.066   7.390 -0.3430  0.0827  0.2581
 1502DECAN   C815008   6.333   3.944   7.446 -0.4655  0.1952  0.6702
 1502DECAN   C915009   6.443   3.974   7.549  0.1271  0.6871 -0.0970
 1502DECAN  C1015010   6.543   3.859   7.570  0.0030  0.5024 -0.5154
 1503DECAN   C115011   3.574   4.929  11.128  0.1284 -0.1775  0.2050
 1503DECAN   C215012   3.650   4.959  10.998  0.2895  0.5804  0.4700
 1503DECAN   C315013   3.548   5.018  10.899  0.3858  0.2941  0.2017
 1503DECAN   C415014   3.590   5.001  10.752 -0.5956 -0.1775 -0.0340
 1503DECAN   C515015   3.481   5.048  10.654 -0.0537  0.5554 -0.2966
 1503DECAN   C615016   3.518   5.032  10.505  0.1735 -0.0874 -0.1727
 1503DECAN   C715017   3.422   5.100  10.406 -0.2692 -0.2047  0.1735
 1503DECAN   C815018   3.441   5.072  10.256  0.3874 -0.0869  0.2347
 1503DECAN   C915019   3.578   5.118  10.201  0.3437 -0.2017  0.0299
 1503DECAN  C1015020   3.571   5.157  10.052 -0.4625  0.2156  0.1688
 1504DECAN   C115021   1.297   8.158   9.395  0.0522 -0.0186  0.2258
 1504DECAN   C215022   1.370   8.209   9.520 -0.2884 -0.0958  0.4598
 1504DECAN   C315023   1.509   8.263   9.483 -0.6394  0.4155 -0.1202
 1504DECAN   C415024   1.493   8.406   9.427 -0.1380  0.4509 -0.1835
 1504DECAN   C515025   1.617   8.458   9.352 -0.0607  0.0670 -0.3233
 1504DECAN   C615026   1.601   8.595   9.284  0.4024  0.1147 -0.3404
 1504DECAN   C715027   1.508   8.618   9.163  0.2078  0.0148 -0.2123
 1504DECAN   C815028   1.465   8.766   9.151  0.1559  0.0340  0.1693
 1504DECAN   C915029   1.580   8.868   9.163  0.2750 -0.0812  0.0193
 1504DECAN  C1015030   1.547   9.015   9.133 -0.3131 -0.2485 -0.1776
 1505DECAN   C115031   4.217   4.694  11.993  0.0921  0.2425  0.2424
 1505DECAN   C215032   4.276   4.630  11.867 -0.2092 -0.5372  0.4935
 1505DECAN   C315033   4.213   4.692  11.741  0.6072  0.2101  0.4401
 1505DECAN   C415034   4.276   4.648  11.607  0.5260 -0.1041  0.5042
 1505DECAN   C515035   4.235   4.500  11.595  0.3168 -0.0114  0.0394
 1505DECAN   C615036   4.233   4.450  11.449 -0.3300  0.1115  0.0034
 1505DECAN   C715037   4.192   4.302  11.458 -0.1922  0.0863  0.2307
 1505DECAN   C815038   4.131   4.246  11.328  0.1700 -0.0099  0.0994
 1505DECAN   C915039   4.058   4.111  11.340 -0.2927  0.1906 -0.4046
 1505DECAN  C1015040   3.920   4.111  11.272 -0.5733 -0.2048  0.1509
 1506DECAN   C115041   4.137   9.398  15.060  0.6769  0.1290  0.4305
 1506DECAN   C215042   4.030   9.500  15.103  0.4094  0.2661 -0.5509
 1506DECAN   C315043   3.898   9.457  15.035  0.0528  0.0395  0.2700
 1506DECAN   C415044   3.770   9.534  15.074 -0.1841 -0.1987 -0.0322
 1506DECAN   C515045   3.639   9.492  15.006 -0.3594 -0.1805  0.2931
 1506DECAN   C615046   3.519   9.571  15.062 -0.5715 -0.0123 -0.3920
 1506DECAN   C715047   3.540   9.723  15.046 -0.4445 -0.0041 -0.1482
 1506DECAN   C815048   3.680   9.768  15.091 -0.3594 -0.2938 -0.1198
 1506DECAN   C915049   3.703   9.920  15.103 -0.0924 -0.3361 -0.0885
 1506DECAN  C1015050   3.851   9.962  15.111 -0.1322 -0.2079 -0.0156
 1507DECAN   C115051   2.971   9.099  11.360 -0.1596  0.1074  0.1062
 1507DECAN   C215052   2.927   9.213  11.266 -0.2586  0.0797  0.1193
 1507DECAN   C315053   2.948   9.352  11.329  0.2364  0.3047 -0.5319
 1507DECAN   C415054   2.897   9.475  11.252 -0.1727  0.6659  0.2949
 1507DECAN   C515055   2.972   9.490  11.118 -0.2084  0.5643  0.2632
 1507DECAN   C615056   2.890   9.569  11.014 -0.1173 -0.0769 -0.3046
 1507DECAN   C715057   2.947   9.576  10.871 -0.3035 -0.0145 -0.3755
 1507DECAN   C815058   2.868   9.671  10.779 -0.1857  0.4372 -0.0226
 1507DECAN   C915059   2.928   9.666  10.637 -0.0541  0.1319  0.0451
 1507DECAN  C1015060   2.866   9.765  10.537 -0.8092  0.0054  0.3844
 1508DECAN   C115061   9.510   8.362  10.289  0.0137  0.3711 -0.1219
 1508DECAN   C215062   9.630   8.294  10.221 -0.0314 -0.1026  0.2677
 1508DECAN   C315063   9.668   8.161  10.288  0.0388 -0.3305 -0.2186
 1508DECAN   C415064   9.790   8.086  10.232  0.1322 -0.6127  0.3489
 1508DECAN   C515065   9.802   7.938  10.272 -0.0619 -0.7162  0.0285
 1508DECAN   C615066   9.922   7.867  10.206  0.0957  0.0776 -0.5627
 1508DECAN   C715067   9.971   7.736  10.271 -0.1088  0.3125  0.0775
 1508DECAN   C815068  10.115   7.687  10.246 -0.2971 -0.3424  0.2643
 1508DECAN   C915069  10.164   7.691  10.100  0.3880  0.2552  0.5049
 1508DECAN  C1015070  10.309   7.646  10.073  0.3116  0.4457 -0.2443
 1509DECAN   C115071   2.881   4.530   5.331 -0.5145  0.1521  0.1561
 1509DECAN   C215072   2.970   4.601   5.228 -0.3491 -0.5204 -0.1624
 1509DECAN   C315073   3.005   4.529   5.096 -0.1984  0.0572 -0.4415
 1509DECAN   C415074   2.886   4.528   4.998 -0.7470 -0.6046  0.2139
 1509DECAN   C515075   2.928   4.507   4.851 -0.2096 -0.8479  0.3988
 1509DECAN   C615076   2.815   4.527   4.749  0.4629 -0.4226 -0.2717
 1509DECAN   C715077   2.718   4.409   4.767  0.4380 -0.4296 -0.4454
 1509DECAN   C815078   2.611   4.391   4.657 -0.0703  0.3249 -0.0811
 1509DECAN   C915079   2.501   4.286   4.678 -0.1612  0.5544  0.6466
 1509DECAN  C1015080   2.387   4.292   4.574  0.7590 -0.4662 -0.4495
 1510DECAN   C115081   3.880   9.730  14.241 -0.0373 -0.1680  0.2344
 1510DECAN   C215082   3.931   9.708  14.097  0.1953 -0.6192  0.3816
 1510DECAN   C315083   3.823   9.646  14.006 -0.0331 -0.0236  0.2387
 1510DECAN   C415084   3.844   9.660  13.854 -0.1168 -0.3442  0.1963
 1510DECAN   C515085   3.732   9.607  13.763  0.1526 -0.2229 -0.2080
 1510DECAN   C615086   3.743   9.646  13.614 -0.1505 -0.1261 -0.2041
 1510DECAN   C715087   3.729   9.793  13.571  0.5023  0.1772  0.5717
 1510DECAN   C815088   3.723   9.814  13.418 -1.0847 -0.2476  0.5512
 1510DECAN   C915089   3.685   9.956  13.372 -0.4136 -0.3277 -0.2623
 1510DECAN  C1015090   3.666   9.980  13.221 -0.7006 -0.2491 -0.2150
 1511DECAN   C115091   7.031   9.769  14.986  0.3642 -0.4295  1.1762
 1511DECAN   C215092   7.099   9.708  14.862 -0.2912 -0.4233  0.8099
 1511DECAN   C315093   7.208   9.609  14.908  0.3776  0.0829  0.3433
 1511DECAN   C415094   7.264   9.532  14.787 -0.3327 -0.1505  0.1575
 1511DECAN   C515095   7.169   9.442  14.707 -0.2028  0.0348 -0.2092
 1511DECAN   C615096   7.234   9.356  14.597  0.7205 -0.0990  0.4359
 1511DECAN   C715097   7.335   9.254  14.654 -0.3663 -0.9868  0.8115
 1511DECAN   C815098   7.450   9.332  14.719  0.1967  0.0202 -1.2871
 1511DECAN   C915099   7.529   9.242  14.816 -0.4176  0.3914 -0.4333
 1511DECAN  C1015100   7.635   9.312  14.903 -0.1527 -0.5521  0.0197
 1512DECAN   C115101   5.095   8.440  13.964 -0.3088  0.6224 -0.1523
 1512DECAN   C215102   4.950   8.389  13.978 -0.0679  0.0277  0.1740
 1512DECAN   C315103   4.849   8.500  13.945 -0.1290 -0.0453  0.1163
 1512DECAN   C415104   4.854   8.621  14.041  0.0652  0.0508 -0.0131
 1512DECAN   C515105   4.735   8.718  14.030 -0.0523 -0.0283  0.5280
 1512DECAN   C615106   4.740   8.814  14.150 -0.3988  0.0139  0.5090
 1512DECAN   C715107   4.625   8.917  14.145 -0.6215 -0.2595 -0.0712
 1512DECAN   C815108   4.576   8.991  14.271 -0.1277 -0.0234 -0.0168
 1512DECAN   C915109   4.468   9.100  14.258 -0.4533 -0.3474 -0.0567
 1512DECAN  C1015110   4.440   9.177  14.388  0.3576 -0.0984 -0.0210
 1513DECAN   C115111   7.304   2.865   7.845 -0.2228 -0.2224 -0.0603
 1513DECAN   C215112   7.420   2.836   7.942 -0.2821 -0.0468  0.0624
 1513DECAN   C315113   7.559   2.888   7.902 -0.2529 -0.1736  0.0012
 1513DECAN   C415114   7.597   2.844   7.760  0.3671 -0.2049  0.1751
 1513DECAN   C515115   7.739   2.881   7.711  0.2652  0.3371  0.2924
 1513DECAN   C615116   7.778   3.024   7.753 -0.6205  0.7461 -0.2374
 1513DECAN   C715117   7.915   3.063   7.695 -0.0086 -0.8902  0.0481
 1513DECAN   C815118   7.980   3.181   7.771 -0.3460 -0.5222 -0.2337
 1513DECAN   C915119   8.036   3.143   7.909 -0.2757 -0.0858 -0.1397
 1513DECAN  C1015120   7.941   3.057   7.994 -0.3139 -0.2806 -0.3803
 1514DECAN   C115121   3.271   6.098   5.406 -0.1301 -0.4366  0.2137
 1514DECAN   C215122   3.167   6.198   5.460 -0.1603 -0.2751 -0.1408
 1514DECAN   C315123   3.113   6.181   5.603 -0.3213 -0.0606 -0.1764
 1514DECAN   C415124   3.033   6.053   5.635  0.0311 -0.1562  0.3340
 1514DECAN   C515125   2.996   6.047   5.784 -0.6245  0.1391  0.1842
 1514DECAN   C615126   3.117   6.056   5.879 -0.3673  0.5612 -0.1831
 1514DECAN   C715127   3.089   6.089   6.026 -0.3732  0.0614 -0.0715
 1514DECAN   C815128   3.205   6.047   6.119 -0.3571  0.5389  0.1277
 1514DECAN   C915129   3.176   6.066   6.269 -0.2310  0.2956  0.1830
 1514DECAN  C1015130   3.290   6.037   6.368  0.3640 -0.1828 -0.6240
 1515DECAN   C115131   9.307   7.437  13.513 -0.2427 -0.2723 -0.1714
 1515DECAN   C215132   9.387   7.561  13.557  0.3608 -0.6301 -0.2505
 1515DECAN   C315133   9.368   7.583  13.708  0.5279 -0.3412 -0.2697
 1515DECAN   C415134   9.438   7.463  13.775 -0.0110 -0.4436  0.1171
 1515DECAN   C515135   9.449   7.461  13.928 -0.0627  0.1466  0.1328
 1515DECAN   C615136   9.526   7.338  13.980  0.1537  0.3365  0.2611
 1515DECAN   C715137   9.513   7.326  14.133  0.3589 -0.0561  0.2506
 1515DECAN   C815138   9.606   7.221  14.197 -0.1008 -0.3640  0.4124
 1515DECAN   C915139   9.586   7.227  14.349  0.3142 -0.5886  0.4757
 1515DECAN  C1015140   9.694   7.143  14.421  0.5948 -0.2226  0.4810
 1516DECAN   C115141   5.039   7.844  13.379 -0.4713 -0.1355  0.0335
 1516DECAN   C215142   5.155   7.744  13.394  0.4250  0.7837 -0.6547
 1516DECAN   C315143   5.267   7.786  13.297  0.4226  0.1815 -0.9267
 1516DECAN   C415144   5.302   7.934  13.325  0.2451  0.0003  0.3020
 1516DECAN   C515145   5.432   7.986  13.260  0.2178  0.1407  0.3594
 1516DECAN   C615146   5.419   8.134  13.221 -0.2591  0.0060 -0.0028
 1516DECAN   C715147   5.326   8.176  13.105  0.3155  0.5696 -0.2654
 1516DECAN   C815148   5.331   8.327  13.075  0.1054  0.6795  0.2444
 1516DECAN   C915149   5.245   8.373  12.956  0.3199 -0.0626 -0.2082
 1516DECAN  C1015150   5.255   8.523  12.924 -0.1589  0.0775  0.2713
 1517DECAN   C115151   6.452   3.311   6.657 -0.5384 -0.3328 -0.4973
 1517DECAN   C215152   6.397   3.411   6.760  0.4294 -0.2527 -0.0538
 1517DECAN   C315153   6.369   3.342   6.895  0.4241  0.1009  0.1273
 1517DECAN   C415154   6.322   3.431   7.012  0.5467  0.1029  0.1755
 1517DECAN   C515155   6.439   3.514   7.067  0.8492 -0.3395  0.2054
 1517DECAN   C615156   6.407   3.589   7.198  0.6027 -0.1946  0.0631
 1517DECAN   C715157   6.371   3.495   7.314  0.3383  0.0314  0.1637
 1517DECAN   C815158   6.496   3.412   7.345  0.4204 -0.1647 -0.6731
 1517DECAN   C915159   6.459   3.283   7.420  0.0801  0.1996 -0.2122
 1517DECAN  C1015160   6.575   3.193   7.467 -0.1479 -0.0921 -0.2027
 1518DECAN   C115161   7.350   1.320   4.431 -0.2704  0.2684 -0.0279
 1518DECAN   C215162   7.496   1.339   4.384 -0.2002 -0.2139 -0.0069
 1518DECAN   C315163   7.503   1.332   4.230  0.8855  0.3962  0.0081
 1518DECAN   C415164   7.420   1.436   4.153  0.6937  0.1598 -0.1041
 1518DECAN   C515165   7.445   1.577   4.208 -0.0725  0.1810  0.2029
 1518DECAN   C615166   7.416   1.685   4.102 -0.2038 -0.3110 -0.2662
 1518DECAN   C715167   7.475   1.824   4.134 -0.2916 -0.2839 -0.2225
 1518DECAN   C815168   7.416   1.945   4.059 -0.2026 -0.3577 -0.4129
 1518DECAN   C915169   7.458   2.089   4.094  0.0999 -0.4885 -0.2377
 1518DECAN  C1015170   7.416   2.189   3.985  0.5019  0.0807  0.1226
 1519DECAN   C115171   9.684  10.478   8.326  0.0768 -0.6655 -0.2094
 1519DECAN   C215172   9.673  10.435   8.179  0.3235 -0.3609 -0.3178
 1519DECAN   C315173   9.662  10.557   8.085  0.3037 -0.4603 -0.4439
 1519DECAN   C415174   9.642  10.521   7.936 -0.2675 -0.0804 -0.4611
 1519DECAN   C515175   9.660  10.646   7.848 -0.5000  0.4723  0.2663
 1519DECAN   C615176   9.604  10.629   7.705 -0.3594  0.0275  0.2656
 1519DECAN   C715177   9.647  10.736   7.604  0.1368 -0.0720  0.3647
 1519DECAN   C815178   9.616  10.883   7.640  0.9822  0.1850  0.0809
 1519DECAN   C915179   9.653  10.979   7.526  0.6446 -0.2772 -0.4220
 1519DECAN  C1015180   9.801  10.966   7.486  0.8505  0.3246  0.1215
 1520DECAN   C115181   9.797   9.552   4.477 -0.0771 -0.0304  0.1965
 1520DECAN   C215182   9.911   9.578   4.578  0.0404 -0.4354  0.1688
 1520DECAN   C315183   9.897   9.706   4.662  0.2960 -0.1865 -0.1685
 1520DECAN   C415184  10.007   9.740   4.764 -0.6103  0.0845  0.7322
 1520DECAN   C515185  10.009   9.883   4.821  0.3145  0.1851  0.4574
 1520DECAN   C615186   9.906   9.902   4.934  0.1377  0.6994  0.2147
 1520DECAN   C715187   9.937   9.822   5.062  0.1201 -0.0331 -0.2308
 1520DECAN   C815188   9.922   9.670   5.046  0.6482 -0.0588 -0.5024
 1520DECAN   C915189   9.980   9.608   5.174 -0.1177 -0.0882 -0.1646
 1520DECAN  C1015190   9.957   9.455   5.179  0.7344 -0.2085  0.4395
 1521DECAN   C115191   3.817   8.430   8.071  0.3350 -0.2301  0.0636
 1521DECAN   C215192   3.884   8.316   8.150 -0.4952 -0.3823  0.5587
 1521DECAN   C315193   3.832   8.177   8.108 -0.0358 -0.3455 -0.1373
 1521DECAN   C415194   3.897   8.060   8.184  0.2500 -0.3485 -0.3822
 1521DECAN   C515195   3.843   7.918   8.156 -0.0520 -0.2931 -0.0941
 1521DECAN   C615196   3.930   7.809   8.220 -0.0053 -0.4338 -0.3952
 1521DECAN   C715197   4.053   7.761   8.141  0.3772 -0.1146  0.0031
 1521DECAN   C815198   4.132   7.881   8.084  0.3217  0.0413  0.2549
 1521DECAN   C915199   4.236   7.852   7.975 -0.1413  0.2057 -0.2318
 1521DECAN  C1015200   4.279   7.983   7.907 -0.0613  0.5880  0.5526
 1522DECAN   C115201   2.175   9.012  12.356  0.2056 -0.1555 -0.4825
 1522DECAN   C215202   2.327   9.005  12.335  0.4018 -0.1448  0.8449
 1522DECAN   C315203   2.371   8.909  12.223 -0.0500  0.9050 -0.2637
 1522DECAN   C415204   2.524   8.915  12.207 -0.0374  0.3323 -0.3815
 1522DECAN   C515205   2.564   8.801  12.111 -0.5802  0.0059 -0.2317
 1522DECAN   C615206   2.503   8.669  12.161 -0.3350 -0.0582 -0.0959
 1522DECAN   C715207   2.532   8.551  12.067  0.2765 -0.2113  0.2802
 1522DECAN   C815208   2.455   8.421  12.097 -0.0950 -0.0124  0.1974
 1522DECAN   C915209   2.463   8.317  11.983  0.0147  0.0810  0.1183
 1522DECAN  C1015210   2.346   8.322  11.884  0.0118  0.3685  0.1367
 1523DECAN   C115211   7.998   0.907   7.276 -0.3731  0.1588  0.3346
 1523DECAN   C215212   8.008   1.058   7.248 -0.0183 -0.0475 -0.7134
 1523DECAN   C315213   8.131   1.122   7.315 -0.3553 -0.0219 -0.1178
 1523DECAN   C415214   8.261   1.057   7.266 -0.4517  0.0125 -0.4160
 1523DECAN   C515215   8.392   1.127   7.307 -0.4038 -0.4098  0.1562
 1523DECAN   C615216   8.519   1.071   7.241 -0.3970  0.4713 -0.5939
 1523DECAN   C715217   8.640   1.150   7.294 -0.3528 -0.1460  0.2479
 1523DECAN   C815218   8.785   1.110   7.263 -0.2434  0.7292 -0.4406
 1523DECAN   C915219   8.897   1.159   7.357 -0.1130  0.1750 -0.2998
 1523DECAN  C1015220   8.938   1.307   7.342 -0.0559  0.1855 -0.0528
 1524DECAN   C115221  10.038   0.427   9.102  0.6437  0.0874 -0.3214
 1524DECAN   C215222  10.037   0.367   9.244  0.5540 -0.2147 -0.4497
 1524DECAN   C315223  10.147   0.422   9.337  0.3283  0.6647 -0.6897
 1524DECAN   C415224  10.124   0.405   9.489 -0.0009  0.6800 -0.7376
 1524DECAN   C515225  10.253   0.429   9.569 -0.1709 -0.0375 -0.2401
 1524DECAN   C615226  10.231   0.462   9.718  0.3817  0.7028 -0.3154
 1524DECAN   C715227  10.358   0.486   9.800  0.3554 -0.0587 -0.0437
 1524DECAN   C815228  10.340   0.502   9.952  0.0940  0.0820 -0.0898
 1524DECAN   C915229  10.468   0.524  10.035  0.1771  0.3563 -0.2939
 1524DECAN  C1015230  10.583   0.426  10.005  0.4132  0.3551  0.6087
 1525DECAN   C115231   9.742   1.855  13.464 -0.2373 -0.7421 -0.0307
 1525DECAN   C215232   9.690   1.903  13.328  0.0558 -0.5534 -0.0781
 1525DECAN   C315233   9.660   1.785  13.233  0.1119 -0.7884  0.1970
 1525DECAN   C415234   9.615   1.833  13.094 -0.2129 -1.1182  0.1881
 1525DECAN   C515235   9.539   1.719  13.022 -0.7480 -0.4517 -0.3156
 1525DECAN   C615236   9.612   1.583  13.023 -0.0248 -0.0692 -0.4498
 1525DECAN   C715237   9.558   1.492  12.911 -0.6445 -0.4961  0.1919
 1525DECAN   C815238   9.557   1.340  12.935  0.3205 -0.4542  0.5414
 1525DECAN   C915239   9.694   1.277  12.962  0.4342 -0.3833  0.1319
 1525DECAN  C1015240   9.674   1.129  13.000  0.3437 -0.3845  0.0784
 1526DECAN   C115241  10.664   6.393   6.545  0.2234 -0.0556 -0.1583
 1526DECAN   C215242  10.553   6.495   6.577  0.3862  0.0941 -0.0690
 1526DECAN   C315243  10.464   6.470   6.701  0.1615 -0.3593 -0.3177
 1526DECAN   C415244  10.377   6.596   6.716  0.1296 -0.3953 -0.1993
 1526DECAN   C515245  10.267   6.625   6.613 -0.7595  0.2472  0.9094
 1526DECAN   C615246  10.213   6.768   6.596 -0.3958  0.3225  0.3532
 1526DECAN   C715247  10.306   6.890   6.615 -0.2143  0.3364 -0.5790
 1526DECAN   C815248  10.409   6.915   6.504  0.0007 -0.2563 -0.5201
 1526DECAN   C915249  10.531   7.004   6.537 -0.2685  0.0535 -0.3576
 1526DECAN  C1015250  10.633   7.014   6.422 -0.2551 -0.2480 -0.3706
 1527DECAN   C115251   4.671  11.205   4.103  0.4932 -0.2479 -0.5625
 1527DECAN   C215252   4.598  11.202   3.967  0.1834 -0.0765 -0.3992
 1527DECAN   C315253   4.452  11.155   3.983  0.4452 -0.5320  0.7255
 1527DECAN   C415254   4.363  11.203   3.867  0.5868  0.0169  0.8392
 1527DECAN   C515255   4.216  11.163   3.885  0.4469  0.1951  0.1213
 1527DECAN   C615256   4.125  11.232   3.988 -0.2998  0.1592 -0.5035
 1527DECAN   C715257   3.979  11.190   3.962 -0.4033  0.3962 -0.3076
 1527DECAN   C815258   3.887  11.240   4.075 -0.1419  0.3585 -0.0745
 1527DECAN   C915259   3.945  11.196   4.210  0.0871  0.7378 -0.0486
 1527DECAN  C1015260   3.858  11.092   4.283  0.3481  0.6003  0.0685
 1528DECAN   C115261   4.438   8.826  11.046 -0.3371 -0.0462  0.8822
 1528DECAN   C215262   4.299   8.889  11.065 -0.7918 -0.4545 -0.9011
 1528DECAN   C315263   4.204   8.801  11.148  0.1045 -0.4778  0.1233
 1528DECAN   C415264   4.069   8.875  11.150  0.6628  0.5673  0.0620
 1528DECAN   C515265   4.004   8.906  11.014 -0.1857 -0.2786  0.2639
 1528DECAN   C615266   3.945   8.783  10.942  0.2965 -0.6563  0.5051
 1528DECAN   C715267   3.830   8.814  10.843  0.6327  0.5194  0.4650
 1528DECAN   C815268   3.862   8.894  10.716  0.2296 -0.1113 -0.0337
 1528DECAN   C915269   3.733   8.926  10.638  0.4693  0.0106 -0.3824
 1528DECAN  C1015270   3.663   8.799  10.586 -0.0288  0.0466  0.1922
 1529DECAN   C115271   9.202   2.100   7.633  0.5317 -0.1961 -0.0630
 1529DECAN   C215272   9.130   2.034   7.513  0.3262 -0.3153  0.1243
 1529DECAN   C315273   9.090   2.126   7.396  0.3851 -0.6515 -0.1619
 1529DECAN   C415274   8.997   2.055   7.297  0.2307 -0.3620 -0.2270
 1529DECAN   C515275   8.934   2.127   7.176 -0.5179 -0.0319  0.3525
 1529DECAN   C615276   8.840   2.054   7.078 -0.2248  0.1155 -0.0413
 1529DECAN   C715277   8.791   2.153   6.971  0.3117  0.4115 -0.0138
 1529DECAN   C815278   8.862   2.290   6.975  0.3811  0.3913 -0.4999
 1529DECAN   C915279   8.774   2.397   6.908 -0.1177  0.1331 -0.2633
 1529DECAN  C1015280   8.828   2.539   6.886  0.0846  0.0876 -0.0541
 1530DECAN   C115281   7.746   0.364   4.480 -0.0076  0.3808  0.0279
 1530DECAN   C215282   7.732   0.335   4.330  0.2406 -0.0500  0.0837
 1530DECAN   C315283   7.766   0.188   4.301 -0.3863 -0.0274 -0.8253
 1530DECAN   C415284   7.668   0.092   4.369  0.2251 -0.1522 -0.1055
 1530DECAN   C515285   7.695  11.186   4.344  0.5355 -0.1102 -0.0177
 1530DECAN   C615286   7.576  11.098   4.384 -0.0223  0.2337 -0.8817
 1530DECAN   C715287   7.607  10.947   4.376 -0.1606  0.1155  0.5300
 1530DECAN   C815288   7.493  10.846   4.399  0.0070 -0.2061 -0.0100
 1530DECAN   C915289   7.427  10.876   4.535  0.0258  0.4790 -0.1477
 1530DECAN  C1015290   7.300  10.789   4.544  0.3467  0.0065 -0.1479
 1531DECAN   C115291   4.037   8.655   5.111 -0.1854  0.3905  0.0832
 1531DECAN   C215292   3.964   8.521   5.132  0.1491  0.2491  0.3568
 1531DECAN   C315293   4.057   8.405   5.173 -0.1302  0.0996  0.5661
 1531DECAN   C415294   3.985   8.269   5.162 -0.0005  0.0812 -0.1088
 1531DECAN   C515295   4.064   8.147   5.212 -0.2144 -0.1470 -0.3336
 1531DECAN   C615296   4.103   8.142   5.361  0.0499 -0.0011 -0.3986
 1531DECAN   C715297   4.150   8.004   5.412 -0.7629 -0.1908 -0.1537
 1531DECAN   C815298   4.206   8.024   5.554  0.0624 -0.0008 -0.5049
 1531DECAN   C915299   4.095   8.010   5.659  0.0017 -0.5268 -0.6400
 1531DECAN  C1015300   4.090   7.866   5.714  0.0833 -0.3515 -0.1606
 1532DECAN   C115301   5.726   2.367  12.873 -0.1864  0.3125  0.3481
 1532DECAN   C215302   5.675   2.457  12.987 -0.6027  0.5137  0.0067
 1532DECAN   C315303   5.656   2.385  13.122  0.1011  0.5721  0.1406
 1532DECAN   C415304   5.788   2.337  13.186  0.0162  0.6308  0.3607
 1532DECAN   C515305   5.766   2.245  13.307 -0.3515 -0.4654 -0.5191
 1532DECAN   C615306   5.888   2.209  13.393 -0.7398  0.2894  0.3666
 1532DECAN   C715307   5.963   2.328  13.455 -0.1489 -0.0627  0.3384
 1532DECAN   C815308   5.986   2.447  13.360 -0.3829 -0.2313  0.0689
 1532DECAN   C915309   6.066   2.567  13.414 -0.5372 -0.1940  0.2162
 1532DECAN  C1015310   6.114   2.682  13.324 -0.1921 -0.4093  0.1192
 1533DECAN   C115311   8.748   6.968  14.135 -0.0621  0.3185  0.4550
 1533DECAN   C215312   8.637   7.073  14.147 -0.2992  0.0555  0.5673
 1533DECAN   C315313   8.694   7.215  14.129 -0.0928 -0.0004  0.7825
 1533DECAN   C415314   8.602   7.324  14.186 -0.6589  0.0727 -0.2519
 1533DECAN   C515315   8.625   7.471  14.147  0.1752 -0.0464 -0.2099
 1533DECAN   C615316   8.514   7.567  14.195  0.0940 -0.2547  0.0169
 1533DECAN   C715317   8.490   7.691  14.107 -0.1168  0.0166  0.4526
 1533DECAN   C815318   8.378   7.782  14.160 -0.2863  0.0120  0.1069
 1533DECAN   C915319   8.246   7.705  14.183 -0.3916  0.0605 -0.3352
 1533DECAN  C1015320   8.125   7.793  14.219 -0.1342  0.0098  0.6884
 1534DECAN   C115321   8.365   4.556   5.030 -0.3315  0.0411 -0.1496
 1534DECAN   C215322   8.350   4.612   5.172 -0.6081 -0.2774 -0.0540
 1534DECAN   C315323   8.294   4.755   5.171  0.1633  0.0274 -0.3246
 1534DECAN   C415324   8.261   4.826   5.303 -0.0165 -0.0626 -0.3207
 1534DECAN   C515325   8.382   4.899   5.363 -0.2796  0.6590 -0.6602
 1534DECAN   C615326   8.435   5.001   5.259 -0.1882  0.4892 -0.7803
 1534DECAN   C715327   8.529   5.111   5.311 -0.1564  0.1384 -0.0830
 1534DECAN   C815328   8.564   5.230   5.221 -0.9122  0.3969 -0.0373
 1534DECAN   C915329   8.664   5.328   5.284 -0.3874 -0.0706 -0.1377
 1534DECAN  C1015330   8.686   5.451   5.194 -0.1113  0.2850  0.4085
 1535DECAN   C115331  10.227   0.096  12.446  0.4105 -0.3647  0.1605
 1535DECAN   C215332  10.377   0.110  12.414  0.2544  0.0359 -0.4134
 1535DECAN   C315333  10.398   0.098  12.262 -0.6357 -0.4612 -0.5012
 1535DECAN   C415334  10.300   0.184  12.179  0.0563  0.6428 -0.1951
 1535DECAN   C515335  10.302   0.173  12.025 -0.8053  0.1602 -0.1776
 1535DECAN   C615336  10.305   0.035  11.956 -0.0123  0.1409 -0.1152
 1535DECAN   C715337  10.402  11.173  12.011  0.2210  0.3657 -0.0875
 1535DECAN   C815338  10.378  11.033  11.953 -0.2456  0.2489  0.3802
 1535DECAN   C915339  10.501  10.941  11.947 -0.3635  0.1210 -0.1806
 1535DECAN  C1015340  10.456  10.802  11.898  0.0321  0.0849 -0.4470
 1536DECAN   C115341   6.996   3.056  11.212 -0.4068  0.1696 -0.5595
 1536DECAN   C215342   7.033   2.912  11.172 -0.3843  0.1055 -0.3079
 1536DECAN   C315343   7.155   2.866  11.256 -0.1108 -0.1952 -0.8658
 1536DECAN   C415344   7.173   2.714  11.264  0.2583 -0.0930  0.4578
 1536DECAN   C515345   7.038   2.663  11.320 -0.0836  0.0462 -0.2248
 1536DECAN   C615346   7.019   2.520  11.266  0.4681 -0.0186 -0.2553
 1536DECAN   C715347   6.917   2.446  11.355  0.3483  0.2200 -0.1936
 1536DECAN   C815348   6.976   2.432  11.497  0.0269  0.0051 -0.0805
 1536DECAN   C915349   6.942   2.563  11.571 -0.1117 -0.1749  0.1759
 1536DECAN  C1015350   6.993   2.550  11.715  0.0767  0.4762  0.1720
 1537DECAN   C115351   6.470   9.387   6.235 -0.5330 -0.1053  0.3633
 1537DECAN   C215352   6.540   9.257   6.190 -0.8375 -0.1645  0.0600
 1537DECAN   C315353   6.485   9.137   6.270 -0.1908 -0.6417 -0.2048
 1537DECAN   C415354   6.570   9.012   6.240  0.2489 -0.4526  0.2395
 1537DECAN   C515355   6.494   8.889   6.293  0.1084 -0.4589  0.0281
 1537DECAN   C615356   6.555   8.749   6.277  0.3195 -0.3857  0.1826
 1537DECAN   C715357   6.456   8.631   6.280 -0.0416 -0.0783  0.3081
 1537DECAN   C815358   6.516   8.491   6.261 -0.0533 -0.0004 -0.3002
 1537DECAN   C915359   6.400   8.398   6.298  0.1893 -0.2436 -0.1492
 1537DECAN  C1015360   6.435   8.248   6.286 -0.6803 -0.4416 -0.3120
 1538DECAN   C115361   4.066   6.419   4.785  0.2534  0.1693  0.2577
 1538DECAN   C215362   4.203   6.392   4.718 -0.2369 -0.1783 -0.6264
 1538DECAN   C315363   4.290   6.303   4.808 -0.6884  0.2451  0.2432
 1538DECAN   C415364   4.226   6.164   4.826 -0.2259 -0.0083 -0.0637
 1538DECAN   C515365   4.113   6.176   4.930 -0.1296  0.4498 -0.0113
 1538DECAN   C615366   4.016   6.056   4.939 -0.0654  0.3939 -0.0623
 1538DECAN   C715367   4.094   5.933   4.989 -0.5391 -0.2691 -0.9473
 1538DECAN   C815368   4.013   5.825   5.063 -0.3879  0.3530  0.1423
 1538DECAN   C915369   3.924   5.867   5.182 -0.6879 -0.2061  0.1202
 1538DECAN  C1015370   3.782   5.913   5.144 -0.5755 -0.0031 -0.0632
 1539DECAN   C115371   2.272   5.258   5.145  0.0252  0.3275 -0.4439
 1539DECAN   C215372   2.380   5.256   5.035  0.1601 -0.0549 -0.3058
 1539DECAN   C315373   2.314   5.267   4.896 -0.3831 -0.3602 -0.0776
 1539DECAN   C415374   2.408   5.270   4.774 -0.3997 -0.2029 -0.0879
 1539DECAN   C515375   2.333   5.262   4.640 -0.1933  0.4630 -0.2455
 1539DECAN   C615376   2.425   5.270   4.517  0.3421  0.1582  0.1286
 1539DECAN   C715377   2.346   5.232   4.390  0.5763  0.0328  0.0197
 1539DECAN   C815378   2.407   5.288   4.260  0.3739  0.4133  0.0844
 1539DECAN   C915379   2.337   5.245   4.129  0.4916  0.1030  0.1203
 1539DECAN  C1015380   2.384   5.317   4.001  0.6844 -0.1178  0.0687
 1540DECAN   C115381   6.058   9.550   3.946 -0.1852  0.2128 -0.2032
 1540DECAN   C215382   5.925   9.568   4.021 -0.4340  0.3371 -0.6655
 1540DECAN   C315383   5.909   9.675   4.131  0.5923 -0.2426  0.0673
 1540DECAN   C415384   5.984   9.623   4.255  0.1861  0.0667  0.4474
 1540DECAN   C515385   6.135   9.618   4.228  0.1413 -0.0449  0.2160
 1540DECAN   C615386   6.215   9.508   4.300 -0.0977 -0.2707  0.1363
 1540DECAN   C715387   6.180   9.359   4.276  0.1083 -0.2654 -0.2012
 1540DECAN   C815388   6.222   9.261   4.387  0.1744  0.1351  0.1296
 1540DECAN   C915389   6.162   9.276   4.528 -0.1711 -0.0669  0.0051
 1540DECAN  C1015390   6.181   9.155   4.621  0.2401  0.1700  0.2312
 1541DECAN   C115391   8.910   9.495  11.716  0.0787 -0.2452  0.6819
 1541DECAN   C215392   9.014   9.385  11.741  0.1042 -0.4040 -0.0839
 1541DECAN   C315393   8.944   9.259  11.797 -0.8245  0.1467  0.0080
 1541DECAN   C415394   9.043   9.152  11.846 -0.5034  0.4010 -0.0765
 1541DECAN   C515395   9.141   9.109  11.735 -0.0899  0.5030  0.2455
 1541DECAN   C615396   9.205   9.217  11.645 -0.2004  0.4461  0.0962
 1541DECAN   C715397   9.269   9.163  11.515 -0.2592 -0.2589  0.3524
 1541DECAN   C815398   9.292   9.268  11.405 -0.2137 -0.3935  0.2347
 1541DECAN   C915399   9.332   9.215  11.266 -0.3965  0.5754 -0.1978
 1541DECAN  C1015400   9.365   9.324  11.163 -0.1165  0.4183 -0.2769
 1542DECAN   C115401   1.605  10.079  11.867 -0.3436  0.0182 -0.1810
 1542DECAN   C215402   1.748  10.111  11.820 -0.2934 -0.1226 -0.1243
 1542DECAN   C315403   1.740  10.182  11.684 -0.4469 -0.2752 -0.1948
 1542DECAN   C415404   1.643  10.302  11.678 -0.2257 -0.0715  0.3400
 1542DECAN   C515405   1.612  10.335  11.532  0.0182 -0.1472  0.2710
 1542DECAN   C615406   1.707  10.436  11.464  0.1406 -0.2513  0.2865
 1542DECAN   C715407   1.699  10.444  11.310  0.0621  0.1898  0.3132
 1542DECAN   C815408   1.794  10.543  11.241  0.2395 -0.1204  0.1122
 1542DECAN   C915409   1.846  10.499  11.102 -0.5119 -0.2358 -0.1352
 1542DECAN  C1015410   1.924  10.366  11.106  0.3188  0.2594  0.3611
 1543DECAN   C115411   7.194   7.161   6.663 -0.1104 -0.0679  0.2559
 1543DECAN   C215412   7.099   7.086   6.759 -0.4882 -0.3976 -0.3735
 1543DECAN   C315413   7.098   6.935   6.729 -0.0800 -0.3135 -0.8187
 1543DECAN   C415414   6.996   6.842   6.797  0.2280 -0.0733 -0.0224
 1543DECAN   C515415   7.009   6.848   6.951 -0.0204  0.3720 -0.0187
 1543DECAN   C615416   6.912   6.759   7.031  0.7625 -0.8369 -0.3834
 1543DECAN   C715417   6.957   6.754   7.178 -0.3705  0.5387  0.0384
 1543DECAN   C815418   6.854   6.677   7.262 -0.0220  0.3425  0.2907
 1543DECAN   C915419   6.706   6.720   7.256 -0.1781 -0.2971 -0.5001
 1543DECAN  C1015420   6.609   6.623   7.327 -0.2606  0.0910 -0.0812
 1544DECAN   C115421   1.779   6.513  13.106  0.7297 -0.1130  0.2587
 1544DECAN   C215422   1.686   6.634  13.127  0.6380 -0.1574  0.1124
 1544DECAN   C315423   1.708   6.731  13.245 -0.2042  0.4027 -0.1772
 1544DECAN   C415424   1.590   6.809  13.306 -0.2431 -0.1229  0.4304
 1544DECAN   C515425   1.640   6.928  13.389  0.2383 -0.0604  0.0584
 1544DECAN   C615426   1.521   6.999  13.456  0.2735 -0.3987  0.4831
 1544DECAN   C715427   1.562   7.070  13.586  0.3853 -0.0731  0.2720
 1544DECAN   C815428   1.674   7.175  13.573 -0.2108  0.5492  0.1136
 1544DECAN   C915429   1.693   7.253  13.705  0.0902 -0.0576  0.4302
 1544DECAN  C1015430   1.814   7.347  13.723  0.2400 -0.0869 -0.3928
 1545DECAN   C115431   5.833   0.076   6.168  0.2767  0.1060 -0.1604
 1545DECAN   C215432   5.964   0.135   6.112  0.6558 -0.5752 -0.0034
 1545DECAN   C315433   5.947   0.200   5.974 -0.2206 -0.1574  0.2883
 1545DECAN   C415434   5.814   0.269   5.940 -0.1817 -0.3809 -0.3309
 1545DECAN   C515435   5.802   0.334   5.800  0.1474  0.2083 -0.0903
 1545DECAN   C615436   5.664   0.399   5.781  0.0357 -0.0791 -0.2673
 1545DECAN   C715437   5.670   0.466   5.643  0.3133  0.0056 -0.2133
 1545DECAN   C815438   5.538   0.505   5.574  0.2733 -0.1364 -0.2167
 1545DECAN   C915439   5.575   0.597   5.456  0.2367  0.4157  0.1980
 1545DECAN  C1015440   5.658   0.524   5.349 -0.2661  0.0330  0.0632
 1546DECAN   C115441   4.465   1.252   8.488 -0.0357 -0.0320  0.1804
 1546DECAN   C215442   4.535   1.309   8.363 -0.3745 -0.1306 -0.0536
 1546DECAN   C315443   4.553   1.458   8.394 -0.0839 -0.1724 -0.0205
 1546DECAN   C415444   4.640   1.536   8.292  0.0566 -0.0607  0.1837
 1546DECAN   C515445   4.718   1.658   8.344 -0.1140  0.0307  0.2251
 1546DECAN   C615446   4.801   1.732   8.238  0.3534  0.0097  0.5696
 1546DECAN   C715447   4.725   1.836   8.153  0.7458 -0.5944 -0.5351
 1546DECAN   C815448   4.615   1.793   8.054 -0.2263  1.0299 -0.1965
 1546DECAN   C915449   4.534   1.922   8.028 -0.5153  0.8880  0.0038
 1546DECAN  C1015450   4.417   1.904   7.930 -0.1814  0.1107 -0.2658
 1547DECAN   C115451   4.299   3.380   4.532  0.2257 -0.0739  0.4909
 1547DECAN   C215452   4.328   3.414   4.385 -0.5951 -0.2427  0.2827
 1547DECAN   C315453   4.390   3.294   4.311 -0.1126  0.0770  0.1677
 1547DECAN   C415454   4.544   3.289   4.316 -0.0835  0.1665 -0.5278
 1547DECAN   C515455   4.588   3.177   4.220  0.4475  0.0530 -0.1550
 1547DECAN   C615456   4.731   3.120   4.221  0.2883 -0.3602  0.8271
 1547DECAN   C715457   4.836   3.234   4.217 -0.3504  0.2116  0.0500
 1547DECAN   C815458   4.845   3.304   4.080 -0.2542  0.0768 -0.0129
 1547DECAN   C915459   4.950   3.413   4.055  0.0537 -0.1000  0.5007
 1547DECAN  C1015460   4.990   3.440   3.909 -0.5031 -0.1195  0.3418
 1548DECAN   C115461   8.551   9.488   7.065 -0.5221  0.8662 -0.2527
 1548DECAN   C215462   8.574   9.491   6.912  0.2034  0.4633 -0.1555
 1548DECAN   C315463   8.718   9.527   6.872  0.4025  0.3677  0.4615
 1548DECAN   C415464   8.725   9.540   6.719 -0.1084  0.0309  0.4093
 1548DECAN   C515465   8.848   9.617   6.667 -0.4548  0.3337  0.0258
 1548DECAN   C615466   8.873   9.628   6.516 -0.0273 -0.2312  0.0486
 1548DECAN   C715467   9.015   9.664   6.467 -0.0994  0.1544  0.1181
 1548DECAN   C815468   9.036   9.681   6.315 -0.1449 -0.1270  0.0787
 1548DECAN   C915469   9.181   9.722   6.285 -0.5472  0.6928 -0.7758
 1548DECAN  C1015470   9.203   9.754   6.135 -0.2464  0.3224 -0.8130
 1549DECAN   C115471   2.330   4.292   5.670  0.3946 -0.1990  0.2717
 1549DECAN   C215472   2.425   4.413   5.664 -0.1573  0.2210 -0.1188
 1549DECAN   C315473   2.548   4.408   5.756 -0.5833  0.0787  0.4447
 1549DECAN   C415474   2.638   4.533   5.757 -0.1972 -0.1947 -0.0373
 1549DECAN   C515475   2.772   4.515   5.831 -0.1116  0.1601 -0.1048
 1549DECAN   C615476   2.868   4.635   5.819 -0.0627  0.1085 -0.2327
 1549DECAN   C715477   2.954   4.632   5.947 -0.0299 -0.5042 -0.2679
 1549DECAN   C815478   3.072   4.731   5.950  0.4414 -1.0673 -0.0228
 1549DECAN   C915479   3.157   4.735   6.079  0.0577  0.0420  0.2121
 1549DECAN  C1015480   3.230   4.865   6.118 -0.3329  0.1685  0.5266
 1550DECAN   C115481   5.746   7.459  10.418 -0.2066 -0.7689 -0.2776
 1550DECAN   C215482   5.606   7.448  10.482 -0.0552 -0.2285  0.1491
 1550DECAN   C315483   5.493   7.535  10.424 -0.5337 -0.8770  0.0999
 1550DECAN   C415484   5.353   7.531  10.488 -0.6893  0.1342 -0.1433
 1550DECAN   C515485   5.251   7.627  10.426 -0.4012  0.3248 -0.3204
 1550DECAN   C615486   5.123   7.661  10.504  0.0976  0.1954  0.5742
 1550DECAN   C715487   5.043   7.773  10.434  0.4966  0.4205  0.4798
 1550DECAN   C815488   4.955   7.868  10.517 -0.1120  0.3524 -0.0829
 1550DECAN   C915489   4.896   7.973  10.421  0.2884  0.3823 -0.2982
 1550DECAN  C1015490   4.816   8.087  10.488 -0.0630 -0.2301  0.3297
 1551DECAN   C115491   4.391   1.877  11.971  0.5389 -0.3891 -0.0740
 1551DECAN   C215492   4.453   1.962  11.858  0.4555  0.2864  0.3835
 1551DECAN   C315493   4.375   2.093  11.839 -0.5697 -0.3236  0.3001
 1551DECAN   C415494   4.402   2.163  11.704 -0.0146  0.2550  0.7063
 1551DECAN   C515495   4.318   2.290  11.680 -0.0260  0.1895  0.3925
 1551DECAN   C615496   4.348   2.385  11.563 -0.1878  0.5441  0.6367
 1551DECAN   C715497   4.257   2.509  11.570 -0.3778  0.4211  0.3533
 1551DECAN   C815498   4.224   2.581  11.438  0.1861  0.1492  0.0612
 1551DECAN   C915499   4.218   2.486  11.316  0.4227  0.5407 -0.2590
 1551DECAN  C1015500   4.159   2.557  11.193 -0.4590 -0.2585 -0.3086
 1552DECAN   C115501   5.304   4.610  13.458  0.1603 -0.2016 -0.2786
 1552DECAN   C215502   5.387   4.740  13.469  0.1007 -0.2144  0.3527
 1552DECAN   C315503   5.354   4.847  13.364 -0.0100 -0.6591 -0.0715
 1552DECAN   C415504   5.314   4.794  13.225  0.2480 -1.2330  0.0707
 1552DECAN   C515505   5.281   4.891  13.110  0.1583 -0.9807  0.3084
 1552DECAN   C615506   5.238   4.825  12.977  0.0491 -0.1998 -0.0519
 1552DECAN   C715507   5.167   4.923  12.882 -0.0883 -0.1253  0.1273
 1552DECAN   C815508   5.156   4.853  12.745 -0.0544  0.5519 -0.2267
 1552DECAN   C915509   5.049   4.922  12.658  0.1194  0.6046 -0.3988
 1552DECAN  C1015510   5.076   5.060  12.595  0.3084  0.4117 -0.7432
 1553DECAN   C115511   6.734   8.809   5.939  0.0956  0.1671 -0.2079
 1553DECAN   C215512   6.845   8.732   6.014 -0.1106  0.3412  0.2794
 1553DECAN   C315513   6.826   8.587   6.063  0.0450  0.0347 -0.5605
 1553DECAN   C415514   6.932   8.552   6.169 -0.4648  0.0586 -0.0389
 1553DECAN   C515515   6.928   8.404   6.211 -0.0921  0.1382  0.2831
 1553DECAN   C615516   6.954   8.306   6.095  0.3085  0.4624  0.0956
 1553DECAN   C715517   7.089   8.345   6.033  0.3391 -0.0042 -0.1379
 1553DECAN   C815518   7.144   8.249   5.925  0.4605 -0.1368  0.0410
 1553DECAN   C915519   7.283   8.280   5.867  0.1816  0.1719 -0.4620
 1553DECAN  C1015520   7.334   8.173   5.769  0.1921  0.3453 -0.6483
 1554DECAN   C115521   3.080   5.238  15.001  0.2151 -0.0523 -0.1842
 1554DECAN   C215522   3.139   5.097  14.987 -0.4095 -0.3853  0.5094
 1554DECAN   C315523   3.239   5.073  15.102 -0.0521  0.3114  0.3467
 1554DECAN   C415524   3.336   4.955  15.082  0.0031  0.4450 -0.1795
 1554DECAN   C515525   3.259   4.823  15.101  0.1207  0.3595 -0.2942
 1554DECAN   C615526   3.341   4.696  15.072  0.2073  0.1547  0.7942
 1554DECAN   C715527   3.268   4.565  15.107 -0.8174  0.2439 -0.8603
 1554DECAN   C815528   3.335   4.435  15.058 -0.3790 -0.0575  0.5010
 1554DECAN   C915529   3.257   4.310  15.101 -0.3318 -0.2913 -0.0867
 1554DECAN  C1015530   3.334   4.176  15.098  0.3861  0.1245 -0.6248
 1555DECAN   C115531   8.010   3.818  11.741  0.8893 -0.3610  0.2249
 1555DECAN   C215532   7.984   3.759  11.881  0.6708 -0.1483  0.2743
 1555DECAN   C315533   8.065   3.829  11.992  0.2647  0.4844  0.1791
 1555DECAN   C415534   8.010   3.796  12.132 -0.1755  0.6917  0.0574
 1555DECAN   C515535   7.866   3.846  12.149 -0.4126  0.0032  0.0978
 1555DECAN   C615536   7.809   3.816  12.289 -0.2580  0.4865  0.2649
 1555DECAN   C715537   7.657   3.835  12.302 -0.3856 -0.2695 -0.0963
 1555DECAN   C815538   7.609   3.773  12.435 -0.1934  0.0237  0.1092
 1555DECAN   C915539   7.622   3.621  12.451  0.3209  0.0617  0.0743
 1555DECAN  C1015540   7.528   3.566  12.560  0.0785  0.3414  0.0064
 1556DECAN   C115541   6.011   4.157  13.633 -0.1877 -0.6485 -0.7748
 1556DECAN   C215542   6.078   4.191  13.498  0.0998 -0.7496 -0.6590
 1556DECAN   C315543   6.230   4.212  13.493 -0.0341  0.4259 -0.0482
 1556DECAN   C415544   6.284   4.277  13.364  0.3865  0.2964  0.0611
 1556DECAN   C515545   6.436   4.300  13.363  0.4653 -0.2079  0.0268
 1556DECAN   C615546   6.517   4.170  13.379  0.3136 -0.2633  0.3754
 1556DECAN   C715547   6.657   4.206  13.433  0.2445 -0.4158  0.6521
 1556DECAN   C815548   6.736   4.075  13.449  0.2876 -0.3971  0.5870
 1556DECAN   C915549   6.875   4.098  13.511  0.3487  0.6003  0.1033
 1556DECAN  C1015550   6.926   3.969  13.578 -0.1522 -0.0250 -0.6906
 1557DECAN   C115551   3.936   1.423   9.147 -0.2558 -0.0682  0.0592
 1557DECAN   C215552   3.786   1.452   9.168 -0.2221  0.2878 -0.1845
 1557DECAN   C315553   3.757   1.592   9.227  0.3135  0.4214 -0.2311
 1557DECAN   C415554   3.850   1.628   9.344  0.6602  0.7299 -0.6005
 1557DECAN   C515555   3.826   1.771   9.396 -0.4102  0.3567 -0.0485
 1557DECAN   C615556   3.689   1.798   9.462 -0.3294  0.4364  0.0870
 1557DECAN   C715557   3.672   1.938   9.523  0.0874  0.3655  0.3681
 1557DECAN   C815558   3.544   1.917   9.605 -0.0292 -0.7281 -0.0837
 1557DECAN   C915559   3.564   1.813   9.717  0.0383 -0.1835  0.4134
 1557DECAN  C1015560   3.696   1.839   9.793  0.2171  0.5805 -0.1520
 1558DECAN   C115561   2.813   1.860   3.881 -0.7251  0.1059 -0.2545
 1558DECAN   C215562   2.750   1.976   3.960  0.3388  0.6769 -0.2215
 1558DECAN   C315563   2.835   2.021   4.080 -0.2560 -0.0603  0.4875
 1558DECAN   C415564   2.976   2.072   4.044 -0.4113  0.1163  0.1295
 1558DECAN   C515565   3.055   2.117   4.168 -0.1633 -0.1151  0.0570
 1558DECAN   C615566   3.201   2.151   4.133 -0.1117 -0.0494  0.3315
 1558DECAN   C715567   3.273   2.205   4.258 -0.1828 -0.0012  0.3522
 1558DECAN   C815568   3.259   2.118   4.384 -0.0157 -0.2515  0.1989
 1558DECAN   C915569   3.323   2.184   4.508 -0.4766 -0.5486  0.6033
 1558DECAN  C1015570   3.476   2.193   4.487 -0.5389 -0.6091  0.0994
 1559DECAN   C115571  10.316   0.240   6.274  0.1104  0.2170 -0.2733
 1559DECAN   C215572  10.169   0.281   6.251 -0.0168  0.1064  0.3244
 1559DECAN   C315573  10.102   0.194   6.143  0.4337  0.4762 -0.2562
 1559DECAN   C415574  10.161   0.194   6.001  0.3200  0.0066 -0.3038
 1559DECAN   C515575  10.080   0.098   5.911 -0.0693  0.2167 -0.1817
 1559DECAN   C615576  10.150   0.084   5.774  0.6992 -0.2765  0.2567
 1559DECAN   C715577  10.046   0.045   5.668  0.5865  0.0659  0.2400
 1559DECAN   C815578   9.992  11.145   5.667  0.1440  0.2295 -0.5952
 1559DECAN   C915579   9.874  11.130   5.569  0.1359 -0.5737 -0.4714
 1559DECAN  C1015580   9.779   0.004   5.596  0.4927 -0.4515  0.2973
 1560DECAN   C115581   4.118   6.401   8.089 -0.2981 -0.1401  0.0576
 1560DECAN   C215582   4.174   6.326   7.966  0.2391  0.5674 -0.1323
 1560DECAN   C315583   4.087   6.351   7.842 -0.2038 -0.3238 -0.0077
 1560DECAN   C415584   4.120   6.255   7.726  0.5190  0.0666 -0.1258
 1560DECAN   C515585   4.035   6.294   7.603  0.1465  0.6249  0.3015
 1560DECAN   C615586   4.063   6.206   7.480 -0.1346  0.4995  0.3251
 1560DECAN   C715587   4.017   6.059   7.484  0.4094  0.2860 -0.8306
 1560DECAN   C815588   4.118   5.972   7.561 -0.3730 -0.3334 -0.4957
 1560DECAN   C915589   4.080   5.824   7.577 -0.1941 -0.3103  0.1813
 1560DECAN  C1015590   4.176   5.740   7.663  0.3358  0.5145  0.4007
 1561DECAN   C115591   1.194   9.948  13.259 -0.6647 -0.4103  0.2601
 1561DECAN   C215592   1.113   9.948  13.128 -0.0459 -0.0732 -0.1252
 1561DECAN   C315593   1.051   9.812  13.092 -0.2564 -0.1049  0.3423
 1561DECAN   C415594   1.142   9.690  13.068 -0.3336 -0.1606  0.3343
 1561DECAN   C515595   1.075   9.601  12.963  0.4901 -0.0695 -0.2803
 1561DECAN   C615596   1.145   9.469  12.924  0.2577 -0.2334 -0.1487
 1561DECAN   C715597   1.280   9.480  12.851  0.3889 -0.2743  0.0853
 1561DECAN   C815598   1.262   9.540  12.710  0.6787 -0.3773  0.0032
 1561DECAN   C915599   1.142   9.482  12.633  0.3537  0.1809  0.0815
 1561DECAN  C1015600   1.142   9.537  12.489  0.1515 -0.2654 -0.0928
 1562DECAN   C115601   2.923   0.499  10.831 -0.2439 -0.5167 -0.7662
 1562DECAN   C215602   2.799   0.565  10.894  0.2762 -0.5129  0.2914
 1562DECAN   C315603   2.679   0.556  10.798  0.1128  0.4488  0.3885
 1562DECAN   C415604   2.542   0.589  10.861 -0.3226 -0.4561 -0.0577
 1562DECAN   C515605   2.414   0.575  10.777 -0.5060 -0.4447  0.2195
 1562DECAN   C615606   2.285   0.617  10.850 -0.1698  0.3892  0.3456
 1562DECAN   C715607   2.150   0.588  10.783  0.3062  0.4342 -0.6447
 1562DECAN   C815608   2.027   0.658  10.845  0.5000  0.0383  0.1990
 1562DECAN   C915609   2.030   0.810  10.826  0.1879  0.1557  1.0694
 1562DECAN  C1015610   1.905   0.887  10.873 -0.0537 -0.0027  0.6856
 1563DECAN   C115611   1.972   5.893  14.812 -0.2009 -0.0981 -0.1151
 1563DECAN   C215612   1.827   5.943  14.800 -0.2314 -0.1450  0.0579
 1563DECAN   C315613   1.797   6.061  14.706  0.1107 -0.0090  0.1201
 1563DECAN   C415614   1.797   6.194  14.784  0.4634  0.1893 -0.2144
 1563DECAN   C515615   1.757   6.321  14.705  0.5427  0.5262  0.2848
 1563DECAN   C615616   1.803   6.451  14.774  0.3946  0.4190  0.5874
 1563DECAN   C715617   1.734   6.579  14.724  0.2630  0.1476  0.0638
 1563DECAN   C815618   1.802   6.702  14.788 -0.4025  0.1206  0.8485
 1563DECAN   C915619   1.750   6.832  14.722  0.5882 -0.1148 -0.4437
 1563DECAN  C1015620   1.805   6.959  14.790 -0.5605  0.0831  0.1388
 1564DECAN   C115621   2.290   9.727  12.346  0.5805 -0.0486  0.2453
 1564DECAN   C215622   2.312   9.846  12.252 -0.0788  0.1418  0.3250
 1564DECAN   C315623   2.463   9.872  12.263 -0.1023  0.1137  0.7153
 1564DECAN   C415624   2.509   9.999  12.188  0.2002 -0.3023  0.1910
 1564DECAN   C515625   2.445  10.126  12.246 -0.1034 -0.5704  0.4458
 1564DECAN   C615626   2.519  10.253  12.202 -0.7197 -0.2974  0.1898
 1564DECAN   C715627   2.510  10.373  12.299  0.6548 -0.3165  0.3578
 1564DECAN   C815628   2.525  10.511  12.232  0.3451 -0.2460  0.4314
 1564DECAN   C915629   2.502  10.630  12.327  0.0037  0.2205 -0.2245
 1564DECAN  C1015630   2.383  10.612  12.423 -0.1830  0.3239 -0.4375
 1565DECAN   C115631  10.560   2.851   7.965  0.1311  0.1069 -0.0675
 1565DECAN   C215632  10.663   2.965   7.966  0.4688 -0.1913 -0.4660
 1565DECAN   C315633  10.642   3.075   7.860  0.2962  0.1139 -0.1151
 1565DECAN   C415634  10.719   3.206   7.890  0.2897 -0.0251  0.5252
 1565DECAN   C515635  10.707   3.313   7.780  0.2228 -0.1883  0.3721
 1565DECAN   C615636  10.731   3.454   7.838  0.0334  0.0808 -0.1985
 1565DECAN   C715637  10.755   3.559   7.728  0.3692 -0.0851 -0.2853
 1565DECAN   C815638  10.619   3.585   7.659  0.2244 -0.0518  0.0149
 1565DECAN   C915639  10.512   3.663   7.737  0.0714 -0.1581 -0.0876
 1565DECAN  C1015640  10.533   3.814   7.714  0.1381 -0.2440 -0.6102
 1566DECAN   C115641   4.745   6.368  14.921 -0.4797  0.5698 -0.3562
 1566DECAN   C215642   4.618   6.328  14.844 -0.3285  0.0283 -0.3251
 1566DECAN   C315643   4.480   6.330  14.913 -0.2103 -0.0743 -0.0821
 1566DECAN   C415644   4.362   6.277  14.829 -0.1594 -0.1222 -0.1234
 1566DECAN   C515645   4.218   6.296  14.882  0.0533  0.6652  0.1865
 1566DECAN   C615646   4.134   6.207  14.788  0.1808  0.4025  0.3182
 1566DECAN   C715647   3.985   6.205  14.827  0.2042 -0.1006  0.3894
 1566DECAN   C815648   3.918   6.337  14.868  0.4595  0.1854 -0.0939
 1566DECAN   C915649   3.972   6.398  14.999 -0.2802 -0.4446  0.5107
 1566DECAN  C1015650   3.874   6.498  15.066  0.0201 -0.2108  0.6027
 1567DECAN   C115651   1.747   0.387  10.212 -1.3190 -0.5600 -0.5134
 1567DECAN   C215652   1.782   0.362  10.064 -0.2093 -0.2080 -0.3146
 1567DECAN   C315653   1.672   0.282   9.992 -0.1557 -0.6092  0.0393
 1567DECAN   C415654   1.707   0.244   9.846 -0.3309 -0.5650 -0.0142
 1567DECAN   C515655   1.590   0.193   9.761 -0.3453 -0.4304 -0.0764
 1567DECAN   C615656   1.477   0.295   9.736 -0.4232 -0.5953 -0.4016
 1567DECAN   C715657   1.381   0.339   9.847 -0.0385  0.1829 -0.3708
 1567DECAN   C815658   1.261   0.433   9.827 -0.2230  0.0609  0.1307
 1567DECAN   C915659   1.177   0.465   9.952 -0.0033  0.3331  0.2115
 1567DECAN  C1015660   1.081   0.353   9.996 -0.6063  0.6486 -0.2792
 1568DECAN   C115661   2.876  10.344   8.825  0.0843 -0.2653  0.1088
 1568DECAN   C215662   2.909  10.256   8.702 -1.1127 -0.5305 -0.0376
 1568DECAN   C315663   2.973  10.118   8.725  0.0816 -0.0325 -0.2861
 1568DECAN   C415664   3.068  10.070   8.614  0.8127  0.2010  0.2307
 1568DECAN   C515665   3.109   9.922   8.622 -0.7645 -0.2697  0.0011
 1568DECAN   C615666   3.162   9.863   8.490  0.2408 -0.2509  0.3806
 1568DECAN   C715667   3.234   9.727   8.492 -0.0221 -0.3977  0.1419
 1568DECAN   C815668   3.386   9.727   8.465 -0.0422  0.5512 -0.0008
 1568DECAN   C915669   3.459   9.592   8.472  0.0982  0.6051 -0.4197
 1568DECAN  C1015670   3.609   9.607   8.439  0.0322  0.3285 -0.8581
 1569DECAN   C115671   7.803   5.416  14.603 -0.9904 -0.2659 -0.2046
 1569DECAN   C215672   7.721   5.532  14.544 -0.4206  0.2997  0.1038
 1569DECAN   C315673   7.729   5.542  14.390 -0.6511  0.2892  0.0920
 1569DECAN   C415674   7.623   5.637  14.332 -0.4400  0.1049 -0.6019
 1569DECAN   C515675   7.596   5.617  14.181  0.0826  0.2826 -0.7212
 1569DECAN   C615676   7.496   5.728  14.145 -0.0627  0.2700 -0.3622
 1569DECAN   C715677   7.459   5.750  13.997  0.3453 -0.0090 -0.5083
 1569DECAN   C815678   7.374   5.877  13.980 -0.3306 -0.4003 -0.1344
 1569DECAN   C915679   7.379   5.922  13.833 -0.5737 -0.3204 -0.1185
 1569DECAN  C1015680   7.313   6.057  13.798 -0.3528 -0.2679 -0.3325
 1570DECAN   C115681   5.338   3.829  10.089 -0.0406  0.5358 -0.0515
 1570DECAN   C215682   5.453   3.782  10.181 -0.1491  0.1402 -0.1144
 1570DECAN   C315683   5.487   3.868  10.305 -0.1672 -0.4337  0.2922
 1570DECAN   C415684   5.380   3.878  10.414 -0.6374 -0.1142 -0.1941
 1570DECAN   C515685   5.395   3.991  10.519 -0.6992 -0.1346 -0.1619
 1570DECAN   C615686   5.499   3.955  10.627 -0.7548 -0.0622 -0.0863
 1570DECAN   C715687   5.538   4.055  10.738 -0.2730 -0.0452 -0.2693
 1570DECAN   C815688   5.661   4.016  10.822 -0.0692 -0.0121 -0.5471
 1570DECAN   C915689   5.723   4.126  10.910  0.2155 -0.6347  0.0488
 1570DECAN  C1015690   5.799   4.090  11.039 -0.1738 -0.2008  0.4048
 1571DECAN   C115691   7.554   7.274  13.077 -0.3134  1.2268 -0.0695
 1571DECAN   C215692   7.548   7.290  12.924  0.1867  0.3655 -0.1899
 1571DECAN   C315693   7.520   7.437  12.886 -0.9136  0.1642 -0.2031
 1571DECAN   C415694   7.484   7.440  12.736 -0.1599  0.1759 -0.3902
 1571DECAN   C515695   7.391   7.562  12.714  0.0823  0.4616  0.1349
 1571DECAN   C615696   7.310   7.581  12.584  0.1596 -0.6342 -0.0839
 1571DECAN   C715697   7.378   7.670  12.479 -0.3000 -0.8539 -0.5711
 1571DECAN   C815698   7.301   7.688  12.346  0.0415 -0.3316 -0.7009
 1571DECAN   C915699   7.383   7.774  12.248  0.0672 -0.0138 -0.4027
 1571DECAN  C1015700   7.307   7.781  12.114 -0.3181  0.4441 -0.1658
 1572DECAN   C115701   3.787   8.077  11.519 -0.0510 -0.1548 -0.0781
 1572DECAN   C215702   3.667   7.985  11.544 -0.2679  0.1153 -0.1238
 1572DECAN   C315703   3.635   7.895  11.422 -0.1361  0.2555 -0.2614
 1572DECAN   C415704   3.729   7.778  11.392  0.1402  0.4886 -0.3049
 1572DECAN   C515705   3.687   7.688  11.274  0.1278 -0.5748  0.4980
 1572DECAN   C615706   3.535   7.668  11.284  0.0437 -0.2961 -0.1565
 1572DECAN   C715707   3.488   7.599  11.155 -0.1061 -0.5378  0.0257
 1572DECAN   C815708   3.335   7.612  11.148 -0.0323  0.2144 -0.2380
 1572DECAN   C915709   3.265   7.744  11.108 -0.9574 -0.1016  0.3148
 1572DECAN  C1015710   3.279   7.861  11.207  0.0173  0.0073  0.0549
 1573DECAN   C115711   9.741   5.445   4.307 -0.3276 -0.6117 -0.2912
 1573DECAN   C215712   9.672   5.457   4.170 -0.2567 -0.1428 -0.2877
 1573DECAN   C315713   9.612   5.595   4.138 -0.4878 -0.1544  0.0807
 1573DECAN   C415714   9.555   5.603   3.995  0.2192 -0.1963 -0.2066
 1573DECAN   C515715   9.519   5.751   3.969 -0.1617 -0.2288  0.1379
 1573DECAN   C615716   9.424   5.818   4.070 -0.9819 -0.1952 -0.6487
 1573DECAN   C715717   9.407   5.965   4.028 -0.0390  0.2085  0.3422
 1573DECAN   C815718   9.533   6.051   4.050  0.1878  0.0380 -0.2586
 1573DECAN   C915719   9.535   6.203   4.021 -0.4880  0.1710  0.3640
 1573DECAN  C1015720   9.655   6.273   4.089 -0.3380 -0.4214  0.7173
 1574DECAN   C115721   4.306   4.255   8.623 -0.2421 -0.4783  0.4878
 1574DECAN   C215722   4.356   4.264   8.768  0.4218  0.1436  0.2266
 1574DECAN   C315723   4.264   4.330   8.872  0.6111 -0.0376  0.5113
 1574DECAN   C415724   4.299   4.313   9.021  0.2571  0.1799  0.6204
 1574DECAN   C515725   4.219   4.410   9.111 -0.2151  0.5357 -0.1686
 1574DECAN   C615726   4.214   4.347   9.251 -0.5098  0.5042 -0.1928
 1574DECAN   C715727   4.329   4.358   9.354 -0.2425  0.2381 -0.4621
 1574DECAN   C815728   4.314   4.274   9.482  0.2449  0.0830 -0.5054
 1574DECAN   C915729   4.267   4.129   9.457  0.2744  0.0904 -0.6045
 1574DECAN  C1015730   4.268   4.040   9.582  0.1149  1.1775  0.1915
 1575DECAN   C115731   4.522   9.929  15.081 -0.7627  0.1400  0.9082
 1575DECAN   C215732   4.399   9.979  15.003 -0.4901 -0.2379  0.2297
 1575DECAN   C315733   4.406   9.954  14.851  0.0034  0.1572  0.1842
 1575DECAN   C415734   4.539  10.011  14.799 -0.0974  0.1867 -0.0429
 1575DECAN   C515735   4.563  10.162  14.821 -0.0816  0.1317  0.3176
 1575DECAN   C615736   4.715  10.183  14.823 -0.0358 -0.1686  0.0876
 1575DECAN   C715737   4.762  10.324  14.864  0.1514 -0.1854 -0.0638
 1575DECAN   C815738   4.914  10.333  14.888  0.1499  0.0742 -0.1562
 1575DECAN   C915739   4.962  10.474  14.927 -0.2009  0.3071 -0.5550
 1575DECAN  C1015740   5.115  10.488  14.935 -0.2063 -0.0140  0.1863
 1576DECAN   C115741   4.934  10.391   9.803 -0.6474  0.2974  0.2567
 1576DECAN   C215742   5.005  10.465   9.687 -0.1650  0.0476  0.3900
 1576DECAN   C315743   4.999  10.618   9.683  0.6832  0.0814  0.3464
 1576DECAN   C415744   5.046  10.667   9.544 -0.7137 -0.2279 -0.2450
 1576DECAN   C515745   5.036  10.820   9.531  0.8000 -0.1012 -0.0557
 1576DECAN   C615746   5.083  10.867   9.392 -0.6020 -0.5092 -0.6927
 1576DECAN   C715747   5.089  11.021   9.384 -0.3234 -0.4844 -0.0952
 1576DECAN   C815748   4.963  11.107   9.373  0.0429  0.0144 -0.4360
 1576DECAN   C915749   4.880  11.074   9.247 -0.1073 -0.4765 -0.2102
 1576DECAN  C1015750   4.786  11.195   9.230 -0.0629 -0.3696  0.2891
 1577DECAN   C115751   4.247   1.868  10.527 -0.2555  0.0703  0.0146
 1577DECAN   C215752   4.233   2.010  10.584  0.0122  0.1522 -0.1212
 1577DECAN   C315753   4.140   2.023  10.706 -0.2579 -0.1724 -0.2906
 1577DECAN   C415754   4.185   1.937  10.826 -0.0677 -0.0088 -0.2443
 1577DECAN   C515755   4.231   1.794  10.790 -0.0947 -0.1942  0.4569
 1577DECAN   C615756   4.254   1.718  10.922 -0.4731  0.0096  0.6421
 1577DECAN   C715757   4.280   1.567  10.916  0.1414  0.1219  0.3142
 1577DECAN   C815758   4.153   1.484  10.944  0.5461 -0.5095  0.3112
 1577DECAN   C915759   4.043   1.492  10.835  0.2085  0.6823  0.7234
 1577DECAN  C1015760   3.918   1.408  10.864  0.1102  0.7436  0.4724
 1578DECAN   C115761   4.859   6.350  13.334 -0.2168 -0.1564 -0.2462
 1578DECAN   C215762   5.006   6.323  13.297  0.0901  0.7209  0.3295
 1578DECAN   C315763   5.088   6.246  13.402  0.2041 -0.1459 -0.3863
 1578DECAN   C415764   5.236   6.238  13.361  0.4353 -0.1055  0.4155
 1578DECAN   C515765   5.306   6.134  13.451  0.1727  0.0008  0.7454
 1578DECAN   C615766   5.445   6.098  13.396 -0.3416 -0.4289 -0.3190
 1578DECAN   C715767   5.519   5.991  13.478 -0.4075 -0.3586 -0.1657
 1578DECAN   C815768   5.672   5.990  13.463 -0.4228 -0.0966 -0.3385
 1578DECAN   C915769   5.738   5.886  13.555 -0.2264  0.5117  0.2145
 1578DECAN  C1015770   5.885   5.928  13.574  0.2517 -0.9105 -0.2476
 1579DECAN   C115771   4.977  10.814  15.056 -0.9702 -0.3238 -0.0838
 1579DECAN   C215772   4.972  10.936  14.962 -0.6612 -0.0693  0.2234
 1579DECAN   C315773   5.026  11.060  15.035 -0.4499 -0.1274  0.1640
 1579DECAN   C415774   5.016  11.182  14.942  0.3441 -0.2993 -0.1634
 1579DECAN   C515775   5.099   0.057  14.993 -0.2326  0.0863 -0.1138
 1579DECAN   C615776   5.073   0.197  14.934  0.4136  0.0026 -0.5973
 1579DECAN   C715777   4.925   0.236  14.943  0.6141  0.5232  0.5111
 1579DECAN   C815778   4.898   0.364  14.862  0.1744  0.0021 -0.1797
 1579DECAN   C915779   4.949   0.357  14.717  0.3128  0.3506 -0.1508
 1579DECAN  C1015780   4.938   0.486  14.634 -0.3727  0.1537 -0.3768
 1580DECAN   C115781   6.439   6.288   6.130 -0.0807 -0.2381  0.3681
 1580DECAN   C215782   6.373   6.318   6.266 -0.1731  0.4050  0.1844
 1580DECAN   C315783   6.475   6.368   6.371  0.6404  0.6775 -0.7187
 1580DECAN   C415784   6.569   6.264   6.434  0.2021  0.4474 -0.4411
 1580DECAN   C515785   6.645   6.304   6.562  0.1623  0.0809 -0.3026
 1580DECAN   C615786   6.725   6.180   6.608  0.0394  0.1987  0.2296
 1580DECAN   C715787   6.833   6.205   6.716  0.3098  0.0482 -0.0070
 1580DECAN   C815788   6.776   6.256   6.849 -0.4953  0.0822 -0.3581
 1580DECAN   C915789   6.719   6.398   6.833 -0.7770  0.0501  0.3283
 1580DECAN  C1015790   6.707   6.452   6.977  0.8107 -0.1138  0.5362
 1581DECAN   C115791   5.579  10.271   8.875  0.3072 -0.5291  1.0746
 1581DECAN   C215792   5.582  10.423   8.850 -0.1201 -0.6706  0.0916
 1581DECAN   C315793   5.449  10.494   8.877  0.2642  0.1194 -0.0730
 1581DECAN   C415794   5.451  10.648   8.867  0.9674  0.1199  0.0243
 1581DECAN   C515795   5.477  10.691   8.721 -0.1803 -0.0985 -0.2520
 1581DECAN   C615796   5.412  10.586   8.629 -0.1720 -0.5873  0.2910
 1581DECAN   C715797   5.476  10.571   8.489  0.2278  0.1727  0.3851
 1581DECAN   C815798   5.426  10.445   8.416  0.3254  0.2829  0.1281
 1581DECAN   C915799   5.525  10.377   8.320  0.1130  0.3686 -0.1534
 1581DECAN  C1015800   5.466  10.257   8.244 -0.0488  0.1680  0.2869
 1582DECAN   C115801   2.757   5.740   8.721  0.5583  0.2039 -0.0266
 1582DECAN   C215802   2.726   5.755   8.871  0.1245 -0.1531 -0.0775
 1582DECAN   C315803   2.653   5.644   8.948 -0.1072 -0.2945 -0.4992
 1582DECAN   C415804   2.623   5.673   9.096 -0.4665  0.1648 -0.6620
 1582DECAN   C515805   2.560   5.555   9.172 -0.1049  0.2250 -0.2653
 1582DECAN   C615806   2.486   5.605   9.298  0.8114  0.2541  0.2713
 1582DECAN   C715807   2.400   5.502   9.373  0.4187 -0.0783 -0.6260
 1582DECAN   C815808   2.297   5.430   9.284  0.2271 -0.4484 -0.1068
 1582DECAN   C915809   2.363   5.368   9.160  0.1171  0.3059 -0.5513
 1582DECAN  C1015810   2.275   5.270   9.081 -0.1265 -0.2755  0.4219
 1583DECAN   C115811   6.887  11.104  12.377 -0.6070  0.2051  0.0020
 1583DECAN   C215812   6.784  11.038  12.471 -0.7184  0.1790 -0.1376
 1583DECAN   C315813   6.645  10.994  12.422 -0.3218 -0.8925 -0.3331
 1583DECAN   C415814   6.543  11.063  12.515  0.2679 -0.1347 -0.2323
 1583DECAN   C515815   6.402  11.092  12.460  0.2919  0.4861  0.0303
 1583DECAN   C615816   6.333  11.194  12.552  0.0263 -0.0575  0.4365
 1583DECAN   C715817   6.299  11.132  12.689  0.5207 -0.3865  0.4151
 1583DECAN   C815818   6.238  11.234  12.788  0.0798  0.1320 -0.3826
 1583DECAN   C915819   6.101   0.036  12.734  0.1835 -0.0598 -0.8182
 1583DECAN  C1015820   6.026   0.119  12.840  0.1670 -1.0599 -0.0381
 1584DECAN   C115821  10.001   3.608  14.950 -0.5133 -0.4624  0.3700
 1584DECAN   C215822   9.893   3.707  14.901  0.4077  0.2850 -0.1748
 1584DECAN   C315823   9.915   3.752  14.755  0.4593  0.3665 -0.1410
 1584DECAN   C415824   9.803   3.840  14.697  0.2951  0.1963 -0.0840
 1584DECAN   C515825   9.814   3.861  14.545 -0.2759 -0.3130 -0.1977
 1584DECAN   C615826   9.738   3.752  14.467 -0.8778 -0.1954  0.2139
 1584DECAN   C715827   9.754   3.762  14.314  0.2458 -0.1494  0.3241
 1584DECAN   C815828   9.634   3.696  14.243  0.1076 -0.3160  0.7100
 1584DECAN   C915829   9.647   3.542  14.233 -0.1779 -0.3000  0.0527
 1584DECAN  C1015830   9.534   3.473  14.154  0.4093 -0.6344 -0.5037
 1585DECAN   C115831   8.780  11.100   8.401 -0.2763  0.4529 -0.0597
 1585DECAN   C215832   8.720  11.017   8.516 -0.2275  0.3511 -0.1067
 1585DECAN   C315833   8.811  10.906   8.571 -0.5962  0.0463 -0.1123
 1585DECAN   C415834   8.830  10.778   8.488 -0.1141 -0.1917  0.3629
 1585DECAN   C515835   8.697  10.700   8.486 -0.0396 -0.3196  0.2932
 1585DECAN   C615836   8.685  10.577   8.396 -0.4596  0.2095 -0.3853
 1585DECAN   C715837   8.553  10.500   8.413  0.0644 -0.7228 -0.4564
 1585DECAN   C815838   8.530  10.442   8.554 -0.1237  0.4255 -0.0063
 1585DECAN   C915839   8.650  10.360   8.605 -0.6136 -0.4245 -0.2047
 1585DECAN  C1015840   8.700  10.245   8.515 -0.2621 -0.6991  0.3397
 1586DECAN   C115841   5.902   1.381   9.230  0.5116  0.7009  0.0020
 1586DECAN   C215842   5.987   1.253   9.226 -0.1285  0.2378  0.8398
 1586DECAN   C315843   5.988   1.174   9.094  0.4328  0.0896  0.9282
 1586DECAN   C415844   6.078   1.049   9.095 -0.4325 -0.5583  0.2745
 1586DECAN   C515845   6.054   0.964   8.969  0.0579  0.0368 -0.2320
 1586DECAN   C615846   6.168   0.862   8.957  0.3765  0.3638 -0.0075
 1586DECAN   C715847   6.176   0.806   8.814  0.1528  0.8586 -0.2186
 1586DECAN   C815848   6.318   0.822   8.756  0.3235 -0.5533 -0.2321
 1586DECAN   C915849   6.342   0.758   8.618  0.1795 -0.6382 -0.2189
 1586DECAN  C1015850   6.475   0.797   8.550  0.1766  0.7581  0.5404
 1587DECAN   C115851   2.900   3.772  13.583 -0.0152 -0.0400 -0.3294
 1587DECAN   C215852   3.007   3.663  13.603 -0.0175 -0.0089 -0.1473
 1587DECAN   C315853   3.057   3.587  13.479  0.5143 -0.1989  0.1840
 1587DECAN   C415854   2.941   3.549  13.385  0.4041 -0.6027  0.4791
 1587DECAN   C515855   2.975   3.426  13.298  0.4998 -0.1730 -0.0924
 1587DECAN   C615856   2.848   3.357  13.245  0.4216 -0.0236 -0.1028
 1587DECAN   C715857   2.879   3.245  13.144  0.0563  0.1515 -0.4095
 1587DECAN   C815858   2.993   3.151  13.187 -0.0079  0.0333 -0.4970
 1587DECAN   C915859   3.026   3.040  13.086 -0.2568 -0.4106 -0.0951
 1587DECAN  C1015860   3.114   3.097  12.973 -0.3820 -0.6660 -0.3222
 1588DECAN   C115861   8.342   3.735  11.804  0.3816 -0.4904  0.8695
 1588DECAN   C215862   8.480   3.694  11.749  0.1017 -0.0067 -0.2319
 1588DECAN   C315863   8.603   3.685  11.840 -0.0868 -0.1794  0.0081
 1588DECAN   C415864   8.636   3.822  11.902 -0.4834 -0.1245  0.0972
 1588DECAN   C515865   8.528   3.888  11.990 -0.3475  0.2579 -0.0223
 1588DECAN   C615866   8.571   4.013  12.070 -0.3859  0.3081 -0.0810
 1588DECAN   C715867   8.457   4.062  12.160 -0.4654  0.0976 -0.0642
 1588DECAN   C815868   8.328   4.105  12.088 -0.0726  0.3336 -0.6296
 1588DECAN   C915869   8.227   4.173  12.182  0.1442  0.2157 -0.3111
 1588DECAN  C1015870   8.100   4.195  12.099 -0.4042 -0.2315  0.4002
 1589DECAN   C115871   3.364   4.353  12.218  0.3217  0.3980 -0.6455
 1589DECAN   C215872   3.433   4.220  12.181 -0.4131 -0.1402 -0.1095
 1589DECAN   C315873   3.542   4.250  12.076 -0.4682  0.2433 -0.0586
 1589DECAN   C415874   3.617   4.119  12.049 -0.6968  0.1144 -0.0757
 1589DECAN   C515875   3.730   4.129  11.944 -0.1683 -0.4278  0.4291
 1589DECAN   C615876   3.782   3.997  11.884 -0.4762 -0.2125 -0.3095
 1589DECAN   C715877   3.900   4.015  11.787  0.0857  0.1667  0.4400
 1589DECAN   C815878   4.017   4.074  11.869  0.1527  0.5314  0.0855
 1589DECAN   C915879   4.145   4.083  11.784  0.3070 -0.2214  0.2319
 1589DECAN  C1015880   4.276   4.122  11.857  0.3473 -0.2110  0.1545
 1590DECAN   C115881   8.307   6.262   7.759  0.1314 -0.3842 -0.2722
 1590DECAN   C215882   8.386   6.290   7.888 -0.5437 -0.2940  0.1257
 1590DECAN   C315883   8.496   6.186   7.919 -0.0257 -0.0120 -0.7546
 1590DECAN   C415884   8.455   6.050   7.977 -0.1614  0.3634  0.0349
 1590DECAN   C515885   8.558   5.995   8.078 -0.4432 -0.3915 -0.0829
 1590DECAN   C615886   8.533   5.875   8.171  0.3016 -0.3103  0.2244
 1590DECAN   C715887   8.432   5.927   8.274  0.1988 -0.1435  0.0408
 1590DECAN   C815888   8.284   5.934   8.233  0.3284  0.1370 -0.3823
 1590DECAN   C915889   8.226   5.795   8.199  0.4021 -0.2695  1.1101
 1590DECAN  C1015890   8.075   5.769   8.188  0.3983  0.4070 -0.7272
 1591DECAN   C115891   7.064   1.333  11.550 -0.3661  0.3060 -0.4012
 1591DECAN   C215892   7.001   1.468  11.589 -0.4039  0.0805  0.3376
 1591DECAN   C315893   6.847   1.466  11.578 -0.4138 -0.0429  0.4940
 1591DECAN   C415894   6.788   1.594  11.640 -0.0836  0.2153  0.2768
 1591DECAN   C515895   6.836   1.725  11.574  0.3650 -0.0666  0.0416
 1591DECAN   C615896   6.990   1.737  11.574  0.3780 -0.2069  0.6177
 1591DECAN   C715897   7.028   1.883  11.544  0.0157 -0.2083  0.1363
 1591DECAN   C815898   7.173   1.879  11.493 -0.0769 -0.2578 -0.1228
 1591DECAN   C915899   7.225   2.021  11.468 -0.0196 -0.3590 -0.5772
 1591DECAN  C1015900   7.379   2.024  11.455 -0.0184  0.0952 -0.4853
 1592DECAN   C115901  10.656   3.626  10.424  0.1215 -0.6636  0.8983
 1592DECAN   C215902  10.701   3.759  10.489  0.0844 -0.1606 -0.0820
 1592DECAN   C315903  10.808   3.848  10.425  0.0981  0.2227  0.4753
 1592DECAN   C415904  10.762   3.923  10.299  0.2113 -0.5961 -0.0603
 1592DECAN   C515905  10.872   4.004  10.228 -0.6097  0.1513 -0.5136
 1592DECAN   C615906  10.866   3.990  10.075 -0.0459 -0.4197 -0.4882
 1592DECAN   C715907  10.986   4.057  10.005 -0.0327  0.2890  0.1994
 1592DECAN   C815908  10.992   4.208  10.034 -0.3879  0.2419  0.5306
 1592DECAN   C915909  11.017   4.230  10.184 -0.6297 -0.3023  0.6514
 1592DECAN  C1015910  11.035   4.380  10.214 -0.4882 -0.2749  0.4305
 1593DECAN   C115911   8.609   6.058  11.323  0.3142 -0.4066 -0.1481
 1593DECAN   C215912   8.720   6.022  11.222  0.4115  0.7334 -0.4669
 1593DECAN   C315913   8.847   5.981  11.299  0.1115 -0.0161 -0.3688
 1593DECAN   C415914   8.947   5.965  11.184  0.1264 -1.5128 -0.1692
 1593DECAN   C515915   9.097   5.962  11.218  0.0073 -0.1526  0.5291
 1593DECAN   C615916   9.150   6.098  11.266  0.2632  0.0235 -0.2333
 1593DECAN   C715917   9.082   6.157  11.391  0.0620  0.1420 -0.3986
 1593DECAN   C815918   9.113   6.304  11.425 -0.3582  0.1543 -0.0615
 1593DECAN   C915919   9.093   6.350  11.570 -0.5444  0.6471 -0.2401
 1593DECAN  C1015920   9.135   6.497  11.590 -0.4067  0.5783 -0.0182
 1594DECAN   C115921   8.133   9.785  12.102  0.3222  0.3836  0.2214
 1594DECAN   C215922   7.991   9.839  12.077  0.3552  0.1452 -0.5068
 1594DECAN   C315923   7.969   9.985  12.122 -0.1740 -0.0983  0.0442
 1594DECAN   C415924   7.827  10.043  12.109 -0.1853 -0.0700  0.2861
 1594DECAN   C515925   7.821  10.187  12.162  0.1016 -0.0041  0.1439
 1594DECAN   C615926   7.894  10.204  12.297  0.4935 -0.2821 -0.0323
 1594DECAN   C715927   7.891  10.349  12.348  0.1150 -0.2435 -0.1558
 1594DECAN   C815928   7.988  10.365  12.467  0.0175 -0.9704  0.0242
 1594DECAN   C915929   7.927  10.447  12.582  0.2568 -0.2744 -0.3443
 1594DECAN  C1015930   8.010  10.464  12.711  0.2543  0.3865 -0.4268
 1595DECAN   C115931   9.862   5.421  12.847 -0.1303  0.2523 -0.4117
 1595DECAN   C215932   9.834   5.482  12.985  0.5255 -0.2652 -0.0444
 1595DECAN   C315933   9.960   5.465  13.072  0.1954  0.0137  0.4946
 1595DECAN   C415934  10.091   5.523  13.015 -0.1031 -0.1203 -0.3485
 1595DECAN   C515935  10.150   5.448  12.894  0.2898 -0.5205  0.0864
 1595DECAN   C615936  10.303   5.463  12.889  0.2568 -0.3241 -0.2910
 1595DECAN   C715937  10.380   5.411  12.766 -0.3405 -0.1513 -0.7432
 1595DECAN   C815938  10.532   5.423  12.786 -0.5170  0.0716  0.5676
 1595DECAN   C915939  10.602   5.337  12.893 -0.1559  0.2006  0.4360
 1595DECAN  C1015940  10.752   5.363  12.920 -0.0719  0.2181 -0.0451
 1596DECAN   C115941   7.562   6.954  11.219 -0.2647  0.2834 -0.1116
 1596DECAN   C215942   7.628   7.092  11.228 -0.0049  0.1518 -0.0107
 1596DECAN   C315943   7.782   7.081  11.227 -0.0131 -0.0464  0.4325
 1596DECAN   C415944   7.838   7.223  11.202  0.0664 -0.1336  0.1107
 1596DECAN   C515945   7.781   7.277  11.070  0.0893  0.0127  0.1619
 1596DECAN   C615946   7.677   7.384  11.110 -0.0965 -0.0388 -0.1833
 1596DECAN   C715947   7.591   7.445  10.997  0.7457  0.5948 -0.4918
 1596DECAN   C815948   7.527   7.582  11.022 -0.2050  0.1556 -0.4836
 1596DECAN   C915949   7.616   7.689  11.089  0.0710 -0.6965  0.5239
 1596DECAN  C1015950   7.765   7.686  11.050 -0.0790  0.4107 -0.1631
 1597DECAN   C115951   7.798  10.446   6.431  0.2691  0.0125  0.6313
 1597DECAN   C215952   7.938  10.468   6.492  0.6417  0.8660 -0.4939
 1597DECAN   C315953   7.934  10.532   6.632  0.5275 -0.2313  0.0166
 1597DECAN   C415954   8.076  10.571   6.677  0.4953  0.0889 -0.1548
 1597DECAN   C515955   8.157  10.461   6.749 -0.6258 -0.5439  0.1677
 1597DECAN   C615956   8.125  10.447   6.899 -0.0259  0.0996  0.3654
 1597DECAN   C715957   8.205  10.326   6.951  0.0319 -0.0791 -0.1308
 1597DECAN   C815958   8.179  10.300   7.101 -0.2502  0.3122 -0.1101
 1597DECAN   C915959   8.279  10.204   7.167 -0.8822  0.0564  0.4819
 1597DECAN  C1015960   8.255  10.058   7.122  0.0663 -0.0870  0.4122
 1598DECAN   C115961   2.917  10.156  11.484  0.0290  0.9510  0.4304
 1598DECAN   C215962   2.785  10.101  11.427  0.6796  0.0995 -0.2723
 1598DECAN   C315963   2.817  10.030  11.293  0.5839 -0.4841  0.0106
 1598DECAN   C415964   2.692   9.962  11.234  0.0608  0.0522  0.4782
 1598DECAN   C515965   2.728   9.917  11.091 -0.3899  0.2437  0.3009
 1598DECAN   C615966   2.631   9.817  11.027  0.0532  0.2301 -0.3607
 1598DECAN   C715967   2.501   9.875  10.968  0.0399  0.6740  0.1060
 1598DECAN   C815968   2.405   9.940  11.070  0.0574  0.2269  0.4083
 1598DECAN   C915969   2.266   9.981  11.020  0.1906  0.2061  0.0182
 1598DECAN  C1015970   2.168  10.043  11.121 -0.0842 -0.3529  0.1004
 1599DECAN   C115971   6.293   1.916   5.922 -0.0200  0.5125  0.0776
 1599DECAN   C215972   6.282   2.046   6.005 -0.2430  0.1386  0.6399
 1599DECAN   C315973   6.421   2.075   6.065 -0.0047  0.1217  0.1092
 1599DECAN   C415974   6.438   2.201   6.152  0.4723  0.0660  0.0962
 1599DECAN   C515975   6.352   2.181   6.278  0.0510  0.0586 -0.1887
 1599DECAN   C615976   6.203   2.163   6.248  0.1198 -0.6917 -0.1046
 1599DECAN   C715977   6.109   2.178   6.369 -0.0538  0.0129 -0.3228
 1599DECAN   C815978   5.963   2.195   6.321 -0.3423 -0.3154  0.4279
 1599DECAN   C915979   5.865   2.213   6.438 -0.4306  0.1370  0.2862
 1599DECAN  C1015980   5.715   2.224   6.403 -0.3107 -0.3912 -0.3914
 1600DECAN   C115981   5.597   8.509  14.062 -0.2924 -0.2562 -0.6413
 1600DECAN   C215982   5.691   8.528  13.941  0.1211 -0.0033 -0.2823
 1600DECAN   C315983   5.653   8.506  13.794 -0.0050 -0.1720 -0.2243
 1600DECAN   C415984   5.753   8.561  13.691 -0.2281  0.0284 -0.3358
 1600DECAN   C515985   5.713   8.508  13.552 -0.3894 -0.0361 -0.2653
 1600DECAN   C615986   5.767   8.573  13.423  0.3939  0.4757  0.3140
 1600DECAN   C715987   5.756   8.727  13.417 -0.0197  0.4582  0.5530
 1600DECAN   C815988   5.783   8.784  13.277 -0.1464 -0.4103  0.1695
 1600DECAN   C915989   5.673   8.739  13.179 -0.3596  0.1666  0.1453
 1600DECAN  C1015990   5.649   8.830  13.057  0.9771  0.6036  0.1851
 1601DECAN   C115991   5.514  11.074   4.016  0.0344 -0.4673 -0.2147
 1601DECAN   C215992   5.664  11.098   4.043 -0.1141  0.3759 -0.1061
 1601DECAN   C315993   5.691  11.170   4.177  0.0801 -0.5456  0.3595
 1601DECAN   C415994   5.841  11.199   4.195 -0.0418  0.8709 -0.6516
 1601DECAN   C515995   5.876   0.048   4.313 -0.0535 -0.1874  0.2071
 1601DECAN   C615996   6.026   0.082   4.318  0.0780 -0.7576  0.3008
 1601DECAN   C715997   6.057   0.200   4.413  0.3494  0.0449 -0.7647
 1601DECAN   C815998   6.198   0.213   4.472  0.0159 -0.0796  0.0778
 1601DECAN   C915999   6.302   0.240   4.361  0.2059  0.7589  0.4546
 1601DECAN  C1016000   6.449   0.253   4.403  0.4212 -0.3718  0.0803
 1602DECAN   C116001   9.128   3.333  12.729  0.0129 -0.4657  0.6137
 1602DECAN   C216002   9.017   3.282  12.635  0.0193 -0.0714  0.3916
 1602DECAN   C316003   9.068   3.184  12.528 -0.7109 -0.2976  0.2416
 1602DECAN   C416004   8.975   3.136  12.416 -0.2226 -0.1196 -0.2431
 1602DECAN   C516005   9.028   3.027  12.321 -0.0371 -0.1320 -0.1266
 1602DECAN   C616006   8.942   3.008  12.195  0.1352 -0.3202 -0.2179
 1602DECAN   C716007   8.973   2.870  12.134 -0.1835 -0.4010 -0.1997
 1602DECAN   C816008   8.886   2.842  12.009 -0.0359  0.1363 -0.4266
 1602DECAN   C916009   8.740   2.889  12.021 -0.1015 -0.1762  0.0400
 1602DECAN  C1016010   8.643   2.811  11.931  0.2517  0.4704 -0.9165
 1603DECAN   C116011   4.945  10.365  11.221 -0.1370  0.5777  0.0218
 1603DECAN   C216012   4.986  10.480  11.314  0.8645  0.2820 -0.0384
 1603DECAN   C316013   4.967  10.457  11.465 -0.6639  0.0264 -0.2463
 1603DECAN   C416014   5.100  10.441  11.542 -0.5803  0.2075 -0.3529
 1603DECAN   C516015   5.205  10.349  11.479  0.2766  0.1801  1.0743
 1603DECAN   C616016   5.297  10.417  11.376 -0.6332  0.0483  0.1690
 1603DECAN   C716017   5.418  10.339  11.323 -0.2640  0.5105  0.3258
 1603DECAN   C816018   5.511  10.428  11.238  0.1020  0.0281  0.2120
 1603DECAN   C916019   5.625  10.361  11.160 -0.0297  0.1422 -0.0771
 1603DECAN  C1016020   5.574  10.258  11.058 -0.5490  0.4222 -0.1029
 1604DECAN   C116021   9.587   7.948   9.899  0.3440  0.2763  0.9185
 1604DECAN   C216022   9.689   7.990   9.792 -0.0210 -0.0151  0.4522
 1604DECAN   C316023   9.825   7.938   9.844  0.0551 -0.2040  0.0734
 1604DECAN   C416024   9.935   7.943   9.737  0.1272 -0.2852  0.1428
 1604DECAN   C516025  10.083   7.914   9.769  0.1995 -0.2984 -0.2057
 1604DECAN   C616026  10.180   7.961   9.659  0.0241 -0.4578 -0.4306
 1604DECAN   C716027  10.323   7.918   9.693  0.0065 -0.2138 -0.0414
 1604DECAN   C816028  10.438   7.994   9.622 -0.0975 -0.3023 -0.3090
 1604DECAN   C916029  10.568   7.912   9.630  0.2738  0.3590  0.5802
 1604DECAN  C1016030  10.655   7.918   9.503 -0.0270  0.1285  0.3618
 1605DECAN   C116031   8.433   2.430  12.919  0.0791  0.3196 -0.2215
 1605DECAN   C216032   8.480   2.291  12.874 -0.2726  0.1020  0.0688
 1605DECAN   C316033   8.493   2.297  12.720 -0.4478 -0.4006  0.0343
 1605DECAN   C416034   8.363   2.229  12.673 -0.8934  0.2762  0.2631
 1605DECAN   C516035   8.371   2.076  12.692 -0.5261  0.1744 -0.6463
 1605DECAN   C616036   8.484   2.017  12.607  0.0106  0.4246 -0.1185
 1605DECAN   C716037   8.467   2.058  12.459 -0.2254  0.2188 -0.1492
 1605DECAN   C816038   8.611   2.056  12.405 -0.1458 -0.2278  0.0720
 1605DECAN   C916039   8.699   2.168  12.463 -0.3436 -0.0410  0.0133
 1605DECAN  C1016040   8.838   2.177  12.398 -0.7167  0.0703 -0.7786
 1606DECAN   C116041   5.204   5.412  11.939 -0.5912 -0.2369 -0.0600
 1606DECAN   C216042   5.147   5.503  12.050  0.4830  0.3692  0.0112
 1606DECAN   C316043   5.158   5.656  12.037 -0.2602  0.4621  0.4251
 1606DECAN   C416044   5.305   5.701  12.046 -0.2057  0.2458  0.6141
 1606DECAN   C516045   5.318   5.854  12.039  0.5527  0.1697  0.3276
 1606DECAN   C616046   5.439   5.918  11.968  0.2061  0.2641 -0.1787
 1606DECAN   C716047   5.426   6.071  11.960 -0.1467  0.2636  0.3140
 1606DECAN   C816048   5.563   6.135  11.931 -0.0880 -0.2538 -0.6046
 1606DECAN   C916049   5.623   6.108  11.792  0.3981 -0.2935 -0.3928
 1606DECAN  C1016050   5.752   6.188  11.764  0.5411 -0.2980  0.2538
 1607DECAN   C116051   4.755   4.858  14.054  0.6456 -0.0300 -0.6367
 1607DECAN   C216052   4.699   4.964  13.957 -0.2702 -0.0455 -0.1313
 1607DECAN   C316053   4.547   4.980  13.977 -0.3307  0.1163 -0.6933
 1607DECAN   C416054   4.502   5.120  13.931  0.0360  0.4913  0.0656
 1607DECAN   C516055   4.351   5.144  13.954 -0.1900 -0.7102 -0.0677
 1607DECAN   C616056   4.300   5.274  13.888 -0.1855 -0.5530  0.2361
 1607DECAN   C716057   4.154   5.313  13.916 -0.1450 -0.0606 -0.2173
 1607DECAN   C816058   4.108   5.443  13.847 -0.1648 -0.0300 -0.1458
 1607DECAN   C916059   4.156   5.581  13.897 -0.2829 -0.2184  0.4928
 1607DECAN  C1016060   4.111   5.690  13.798  0.4385 -0.5780 -0.2432
 1608DECAN   C116061   8.429   9.945  11.053 -0.4101 -0.3278  0.2693
 1608DECAN   C216062   8.394  10.011  10.918  0.4235  0.2234  0.3172
 1608DECAN   C316063   8.444   9.916  10.808  0.5197 -0.1119  0.6500
 1608DECAN   C416064   8.470   9.988  10.675 -0.2913 -0.3465  0.3608
 1608DECAN   C516065   8.495   9.901  10.550  0.2393 -0.3155  0.4423
 1608DECAN   C616066   8.384   9.837  10.464  0.1874 -0.2581  0.4669
 1608DECAN   C716067   8.412   9.752  10.339  0.5391  0.5400 -0.0059
 1608DECAN   C816068   8.293   9.677  10.278  0.3767  0.3209  0.5710
 1608DECAN   C916069   8.176   9.763  10.225 -0.1438 -0.4812  0.3850
 1608DECAN  C1016070   8.087   9.690  10.123 -0.7142  0.3179  0.3008
 1609DECAN   C116071   6.549   1.700   4.236 -0.0174  0.1404  0.4089
 1609DECAN   C216072   6.562   1.849   4.198  0.1549  0.0648  0.1717
 1609DECAN   C316073   6.524   1.886   4.054 -0.1910 -0.0586  0.2307
 1609DECAN   C416074   6.555   2.033   4.020 -0.0906  0.0200  0.6612
 1609DECAN   C516075   6.459   2.141   4.075  0.3618  0.6971  0.1400
 1609DECAN   C616076   6.317   2.132   4.017  0.2498 -0.6601  0.5806
 1609DECAN   C716077   6.223   2.232   4.088  0.2832  0.0365 -0.3458
 1609DECAN   C816078   6.075   2.218   4.047  0.2227 -0.0079 -0.1100
 1609DECAN   C916079   5.967   2.317   4.093  0.3642  0.0154  0.1775
 1609DECAN  C1016080   5.939   2.336   4.243 -0.2465 -0.9677  0.1930
 1610DECAN   C116081   5.041   3.426   8.505 -0.3667  0.4881 -0.0256
 1610DECAN   C216082   5.150   3.526   8.462 -0.2018  0.1346 -0.4382
 1610DECAN   C316083   5.109   3.656   8.392 -0.3235  0.0164 -0.5876
 1610DECAN   C416084   5.226   3.753   8.368  0.4827 -0.8136 -0.0536
 1610DECAN   C516085   5.340   3.694   8.283  0.3533 -0.9027 -0.1652
 1610DECAN   C616086   5.474   3.769   8.293 -0.0814 -0.2051  0.5708
 1610DECAN   C716087   5.569   3.707   8.189 -0.8222 -0.2873 -0.0605
 1610DECAN   C816088   5.560   3.554   8.199 -0.1894 -0.3112  0.1975
 1610DECAN   C916089   5.443   3.475   8.137 -0.0612 -0.5036  0.1974
 1610DECAN  C1016090   5.453   3.325   8.169 -0.1024 -0.3437  0.9702
 1611DECAN   C116091   7.095  10.360  13.798  0.5125  0.0131 -0.4586
 1611DECAN   C216092   7.067  10.244  13.896  0.3540  0.2373 -0.2383
 1611DECAN   C316093   7.084  10.287  14.043  0.0723 -0.0223 -0.1285
 1611DECAN   C416094   7.041  10.180  14.145  0.2841  0.3764  0.3878
 1611DECAN   C516095   6.888  10.179  14.165  0.1473  0.2638 -0.6032
 1611DECAN   C616096   6.832  10.080  14.270  0.0459 -0.0188 -0.9195
 1611DECAN   C716097   6.683  10.042  14.271  0.0201  0.1020  0.1250
 1611DECAN   C816098   6.635   9.957  14.152 -0.3123  0.0260  0.3137
 1611DECAN   C916099   6.697   9.817  14.150 -0.4889 -0.0554  0.4668
 1611DECAN  C1016100   6.630   9.730  14.042 -0.5442 -0.0490  0.4960
 1612DECAN   C116101   5.544   9.663   4.267  0.3577 -0.2466 -0.0726
 1612DECAN   C216102   5.566   9.702   4.414  0.1343  0.4162 -0.2137
 1612DECAN   C316103   5.491   9.821   4.477  0.1319  0.3137 -0.0224
 1612DECAN   C416104   5.482   9.805   4.630 -0.8356 -0.6866 -0.1666
 1612DECAN   C516105   5.612   9.835   4.707 -0.9909 -0.0053 -0.1651
 1612DECAN   C616106   5.598   9.827   4.860  0.0238 -0.0310 -0.0700
 1612DECAN   C716107   5.557   9.691   4.920 -0.0033 -0.2088 -0.4962
 1612DECAN   C816108   5.539   9.714   5.071  0.3995  0.0394 -0.4842
 1612DECAN   C916109   5.668   9.766   5.137  0.2285 -0.1097 -0.0288
 1612DECAN  C1016110   5.698   9.917   5.123 -0.4782 -0.0249 -0.7048
 1613DECAN   C116111   2.986   6.521   5.235  0.3833 -0.0246  0.0507
 1613DECAN   C216112   2.841   6.531   5.285  0.2521  0.3193 -0.3889
 1613DECAN   C316113   2.792   6.428   5.389 -0.0934  0.0929 -0.7722
 1613DECAN   C416114   2.639   6.428   5.406 -0.0059 -0.2584  0.0509
 1613DECAN   C516115   2.590   6.298   5.472  0.5113 -0.4317  0.1004
 1613DECAN   C616116   2.437   6.277   5.473  0.4263  0.1201 -0.4848
 1613DECAN   C716117   2.385   6.148   5.540  0.3313  0.3159 -0.1828
 1613DECAN   C816118   2.233   6.129   5.520  0.2951  0.2085  0.2007
 1613DECAN   C916119   2.186   6.002   5.592 -0.0790  0.2207 -0.0257
 1613DECAN  C1016120   2.038   5.968   5.564 -0.0375  0.0626 -0.0534
 1614DECAN   C116121   3.488   9.089  14.003  0.2276  0.0908  0.0812
 1614DECAN   C216122   3.641   9.070  14.009  0.2288  0.0864  0.0363
 1614DECAN   C316123   3.712   9.183  13.934  0.0229  0.1223 -0.1045
 1614DECAN   C416124   3.866   9.180  13.932  0.0406  0.5577  0.2925
 1614DECAN   C516125   3.929   9.224  13.799 -0.4821  0.7812  0.1176
 1614DECAN   C616126   3.871   9.156  13.673 -0.6618  0.1600  0.5308
 1614DECAN   C716127   3.953   9.198  13.550  0.2131 -0.2890  0.9514
 1614DECAN   C816128   4.071   9.105  13.515 -0.2264 -0.4196 -0.2333
 1614DECAN   C916129   4.172   9.160  13.413  0.0388 -0.0302  0.2359
 1614DECAN  C1016130   4.287   9.067  13.370 -0.3343 -0.1602 -0.4967
 1615DECAN   C116131   8.855   7.754   6.909  0.6407  0.4688  0.0487
 1615DECAN   C216132   8.913   7.659   7.015  0.0109 -0.1400 -0.1449
 1615DECAN   C316133   8.900   7.703   7.161 -0.2070  0.1359 -0.2465
 1615DECAN   C416134   8.958   7.609   7.269  0.0243  0.3260 -0.2029
 1615DECAN   C516135   8.895   7.469   7.265 -0.6272  0.5956  0.3411
 1615DECAN   C616136   8.958   7.368   7.363 -0.4580  0.1898 -0.1794
 1615DECAN   C716137   8.978   7.391   7.513 -0.0372 -0.5303 -0.1157
 1615DECAN   C816138   8.846   7.405   7.593 -0.0258 -0.3466 -0.1286
 1615DECAN   C916139   8.754   7.282   7.583 -0.3460 -0.0883 -0.3671
 1615DECAN  C1016140   8.606   7.307   7.619 -0.2255  0.2460 -0.1013
 1616DECAN   C116141   3.451   3.681  10.053 -0.6781 -0.6014 -0.3378
 1616DECAN   C216142   3.372   3.728  10.177  0.4779  0.2485  0.0873
 1616DECAN   C316143   3.456   3.798  10.286  0.6031 -0.9867  0.8019
 1616DECAN   C416144   3.364   3.829  10.406 -0.5550  0.5592 -0.4378
 1616DECAN   C516145   3.412   3.917  10.523  0.9987 -0.2497 -0.4259
 1616DECAN   C616146   3.319   3.917  10.646  0.6080  0.0963 -0.7139
 1616DECAN   C716147   3.360   4.010  10.762 -0.0471 -0.2462 -0.1959
 1616DECAN   C816148   3.297   3.978  10.898  0.2272  0.0552  0.0023
 1616DECAN   C916149   3.347   3.850  10.967  0.0120  0.1178  0.2786
 1616DECAN  C1016150   3.248   3.826  11.082  0.2050  0.3002  0.4848
 1617DECAN   C116151   7.041   6.396   4.956  0.1885 -0.0848  0.4404
 1617DECAN   C216152   7.039   6.479   4.825 -0.1562 -0.2542  0.3403
 1617DECAN   C316153   7.162   6.564   4.789 -0.4017  0.0523  0.2196
 1617DECAN   C416154   7.121   6.707   4.749 -0.1480  0.0611 -0.0077
 1617DECAN   C516155   7.007   6.775   4.827 -0.3431 -0.4310  0.1424
 1617DECAN   C616156   7.045   6.808   4.972 -0.4717  0.2603  0.0203
 1617DECAN   C716157   6.966   6.937   5.002  0.0989  0.6748 -0.2348
 1617DECAN   C816158   7.001   7.001   5.138 -0.3634  0.2612  0.0804
 1617DECAN   C916159   7.146   7.052   5.137 -0.2084 -0.1676  0.3431
 1617DECAN  C1016160   7.249   6.938   5.130 -0.2113 -0.1582  0.1404
 1618DECAN   C116161   5.635   1.588   5.424 -0.0708 -0.5135  0.4835
 1618DECAN   C216162   5.727   1.464   5.431 -0.0113 -0.5306 -0.4533
 1618DECAN   C316163   5.830   1.462   5.545 -0.4702 -0.1613 -0.0276
 1618DECAN   C416164   5.902   1.326   5.543 -1.0811 -0.4862 -0.0566
 1618DECAN   C516165   6.008   1.315   5.654 -0.5955  0.6190 -0.4014
 1618DECAN   C616166   6.105   1.433   5.676  0.0977  0.0116 -0.1658
 1618DECAN   C716167   6.222   1.410   5.774 -0.2376  0.1043  0.2592
 1618DECAN   C816168   6.304   1.537   5.803 -0.2030  0.2493 -0.4509
 1618DECAN   C916169   6.439   1.525   5.877 -0.6064  0.6449  0.3560
 1618DECAN  C1016170   6.537   1.644   5.871 -0.3742  0.4147 -0.4891
 1619DECAN   C116171   3.489   0.855  14.679 -0.4143 -1.2079  0.1647
 1619DECAN   C216172   3.624   0.833  14.748  0.0692  0.9203 -0.0572
 1619DECAN   C316173   3.741   0.766  14.673  0.0389 -0.0629  0.7445
 1619DECAN   C416174   3.866   0.732  14.756  0.2298  0.4692  0.6824
 1619DECAN   C516175   3.861   0.595  14.825  0.3833 -0.0620 -0.3409
 1619DECAN   C616176   3.991   0.557  14.898  0.1296 -0.2842 -0.0003
 1619DECAN   C716177   3.975   0.426  14.977 -0.0370 -0.2052  0.0983
 1619DECAN   C816178   3.960   0.306  14.881  1.0031 -0.1656 -0.1225
 1619DECAN   C916179   3.956   0.166  14.945  0.5539  0.0633  0.3567
 1619DECAN  C1016180   3.944   0.051  14.843  0.0654  0.4158  0.0147
 1620DECAN   C116181   5.535   3.655   5.465 -0.3447  0.3056  0.2133
 1620DECAN   C216182   5.502   3.800   5.423 -0.7259  0.1086 -0.1814
 1620DECAN   C316183   5.352   3.823   5.443 -0.6199  0.4681  0.2088
 1620DECAN   C416184   5.320   3.812   5.594 -0.1328 -0.0784  0.2759
 1620DECAN   C516185   5.177   3.854   5.631 -0.4925 -0.5957 -0.4925
 1620DECAN   C616186   5.161   3.851   5.784 -0.0530 -0.4993 -0.4441
 1620DECAN   C716187   5.011   3.856   5.819  0.1871 -0.0519  0.5503
 1620DECAN   C816188   4.984   3.828   5.968 -0.5032 -0.8416  0.2824
 1620DECAN   C916189   5.066   3.709   6.021  0.1326 -0.6262 -0.2136
 1620DECAN  C1016190   4.987   3.632   6.128  0.5850 -0.4086  0.2775
 1621DECAN   C116191   4.889   9.168  10.972 -0.0970  0.2360  0.4933
 1621DECAN   C216192   4.947   9.060  11.065  0.1139 -0.0193  0.0700
 1621DECAN   C316193   5.086   9.009  11.023  0.0070 -0.1819 -0.0878
 1621DECAN   C416194   5.170   8.941  11.133 -0.0494 -0.3579 -0.1548
 1621DECAN   C516195   5.107   8.826  11.213 -0.1598 -0.2553 -0.0944
 1621DECAN   C616196   5.198   8.778  11.328 -0.2345 -0.3484 -0.0745
 1621DECAN   C716197   5.329   8.704  11.297 -0.3023 -0.2486 -0.6190
 1621DECAN   C816198   5.426   8.673  11.413 -0.5265 -0.0885 -0.3889
 1621DECAN   C916199   5.387   8.549  11.496  0.0293 -0.0305 -0.0348
 1621DECAN  C1016200   5.510   8.482  11.560 -0.3900 -0.2100  0.5893
 1622DECAN   C116201   4.401   3.070   5.824  0.5381 -0.4063  0.2490
 1622DECAN   C216202   4.534   3.039   5.753  0.4983 -0.2309  0.0961
 1622DECAN   C316203   4.547   3.115   5.620 -0.1480  0.4985  0.4474
 1622DECAN   C416204   4.426   3.138   5.528  0.1513  0.4941  0.0523
 1622DECAN   C516205   4.353   3.007   5.491  0.5579  0.2944 -0.0442
 1622DECAN   C616206   4.235   3.022   5.394  0.1211  0.0423  0.4439
 1622DECAN   C716207   4.172   2.886   5.357  0.2455  0.2815 -0.6928
 1622DECAN   C816208   4.063   2.896   5.250 -0.3614 -0.1526 -0.1234
 1622DECAN   C916209   3.997   2.766   5.201  0.5270 -0.3714 -0.7615
 1622DECAN  C1016210   3.882   2.796   5.102 -0.1476  0.0446  0.1360
 1623DECAN   C116211   3.425  10.967   8.506 -0.0371 -0.6561  0.1835
 1623DECAN   C216212   3.344  10.915   8.386 -0.2149  0.1527 -0.0519
 1623DECAN   C316213   3.202  10.866   8.419 -0.0470 -0.1305  0.2523
 1623DECAN   C416214   3.126  10.822   8.293  0.3319  0.0686 -0.0462
 1623DECAN   C516215   3.192  10.707   8.215  0.4673 -0.3213  0.6358
 1623DECAN   C616216   3.092  10.631   8.126  0.5628 -0.0184  0.2641
 1623DECAN   C716217   3.169  10.514   8.063 -0.0145 -0.1138 -0.2740
 1623DECAN   C816218   3.294  10.562   7.988  0.3668 -0.2509  0.2679
 1623DECAN   C916219   3.272  10.633   7.853  0.4246  0.6327  0.7159
 1623DECAN  C1016220   3.408  10.692   7.809  0.4858 -0.0201  0.0002
 1624DECAN   C116221   9.766   0.892  12.730 -0.2735  0.0693  0.1739
 1624DECAN   C216222   9.841   0.848  12.857 -0.1160 -0.4266 -0.0897
 1624DECAN   C316223   9.763   0.729  12.918  0.9244 -0.7256  0.6831
 1624DECAN   C416224   9.758   0.608  12.824 -0.8636 -0.0943 -0.0743
 1624DECAN   C516225   9.710   0.484  12.903 -0.0028  0.1186  0.8025
 1624DECAN   C616226   9.705   0.355  12.820  0.1263  0.5579  0.1028
 1624DECAN   C716227   9.839   0.280  12.830 -0.1442  0.0670  0.1161
 1624DECAN   C816228   9.833   0.156  12.739  0.0370 -0.0416  0.2505
 1624DECAN   C916229   9.948   0.055  12.751 -0.4252 -0.4908  0.9873
 1624DECAN  C1016230  10.071   0.116  12.820  0.0789 -0.5395  0.1391
 1625DECAN   C116231   3.904   3.922  10.901  0.3025 -0.2620  0.1586
 1625DECAN   C216232   3.775   3.892  10.822  0.0242  0.2106  0.4302
 1625DECAN   C316233   3.743   3.992  10.710 -0.1878  0.0779  0.3721
 1625DECAN   C416234   3.731   4.134  10.768 -0.5561  0.2190 -0.0393
 1625DECAN   C516235   3.861   4.185  10.832 -0.2248 -0.1571 -0.4035
 1625DECAN   C616236   3.849   4.325  10.896 -0.0720 -0.4852  0.3549
 1625DECAN   C716237   3.989   4.384  10.921 -0.3172  0.4310 -0.3933
 1625DECAN   C816238   3.992   4.512  11.007  0.2777  0.0660  0.1391
 1625DECAN   C916239   3.885   4.613  10.960  0.1010  0.1602  0.7372
 1625DECAN  C1016240   3.742   4.573  10.998  0.1278 -0.1164  0.5543
 1626DECAN   C116241   1.104   0.740   8.628 -0.3127  0.4970 -0.1672
 1626DECAN   C216242   1.167   0.663   8.510  0.1442 -0.2060  0.5256
 1626DECAN   C316243   1.304   0.595   8.532  0.2067 -0.1482  0.3131
 1626DECAN   C416244   1.349   0.519   8.406  0.1688  0.3690 -0.0179
 1626DECAN   C516245   1.484   0.444   8.407 -0.0970 -0.1191 -0.1674
 1626DECAN   C616246   1.491   0.309   8.480  0.1059 -0.2342 -0.4003
 1626DECAN   C716247   1.634   0.269   8.521  0.0270  0.1395  0.2439
 1626DECAN   C816248   1.654   0.118   8.542 -0.2725  0.1199  0.3897
 1626DECAN   C916249   1.800   0.071   8.556 -0.2174 -0.1415 -0.9850
 1626DECAN  C1016250   1.816  11.162   8.568  0.3614 -0.0603 -0.7019
 1627DECAN   C116251   2.979   9.367  13.082 -0.1220 -0.2661  0.5115
 1627DECAN   C216252   3.047   9.262  13.173 -0.1799 -0.3106  0.5023
 1627DECAN   C316253   3.148   9.328  13.269 -0.2702 -0.2629  0.5651
 1627DECAN   C416254   3.085   9.449  13.341  0.3352  0.1479  0.4071
 1627DECAN   C516255   3.182   9.531  13.429  0.6666  0.4934 -0.2714
 1627DECAN   C616256   3.108   9.636  13.514  0.3426  0.1822 -0.1618
 1627DECAN   C716257   3.104   9.600  13.663 -0.1861 -0.3757 -0.3065
 1627DECAN   C816258   3.242   9.611  13.732 -0.3977  0.3483  0.0088
 1627DECAN   C916259   3.264   9.545  13.869  0.2266 -0.4240 -0.4497
 1627DECAN  C1016260   3.382   9.603  13.950  0.1087  0.0070 -0.5840
 1628DECAN   C116261   2.998   3.974   5.769  0.5841  0.0601 -0.7515
 1628DECAN   C216262   3.085   4.095   5.808  0.0970  0.2381 -0.2023
 1628DECAN   C316263   3.002   4.210   5.868  0.3073  0.0733  0.4116
 1628DECAN   C416264   2.943   4.202   6.010  0.1826 -0.2496  0.3428
 1628DECAN   C516265   2.813   4.121   6.021 -0.0089  0.0113 -0.0079
 1628DECAN   C616266   2.766   4.101   6.167  0.0105 -0.1833 -0.0279
 1628DECAN   C716267   2.636   4.018   6.165  0.0615 -0.2609 -0.1778
 1628DECAN   C816268   2.514   4.091   6.108  0.0914  0.0136  0.1034
 1628DECAN   C916269   2.386   4.007   6.088 -0.0740  0.3686 -0.3618
 1628DECAN  C1016270   2.277   4.084   6.012 -0.7615 -0.2864 -0.0449
 1629DECAN   C116271   8.583   5.843   7.670 -0.6283 -0.2419  0.6265
 1629DECAN   C216272   8.480   5.729   7.660 -0.2107 -0.5783  0.1052
 1629DECAN   C316273   8.342   5.774   7.712 -0.2778  0.0939 -0.6375
 1629DECAN   C416274   8.242   5.658   7.720  0.0003 -0.1315 -0.4072
 1629DECAN   C516275   8.204   5.594   7.586  0.3646 -0.3655 -0.4009
 1629DECAN   C616276   8.124   5.462   7.595 -0.0944 -0.0440  0.2522
 1629DECAN   C716277   8.134   5.388   7.461 -0.4451 -0.0968  0.2537
 1629DECAN   C816278   8.063   5.456   7.342 -0.1524 -0.2527 -0.0148
 1629DECAN   C916279   8.122   5.594   7.309 -0.1524 -0.1313  0.4786
 1629DECAN  C1016280   8.064   5.655   7.180  0.2221 -0.1097  0.3191
 1630DECAN   C116281   7.097   1.533  13.697 -0.3942  0.2116 -0.2851
 1630DECAN   C216282   7.135   1.674  13.744  0.0124  0.1618 -0.4554
 1630DECAN   C316283   7.258   1.732  13.672  0.2755  0.1547 -0.0166
 1630DECAN   C416284   7.371   1.628  13.677  0.5745  0.4364 -0.7061
 1630DECAN   C516285   7.505   1.690  13.631  0.7460  0.7525  0.1975
 1630DECAN   C616286   7.627   1.599  13.652  0.1703  0.0141  0.3943
 1630DECAN   C716287   7.754   1.667  13.598  0.2011 -0.1117  0.3071
 1630DECAN   C816288   7.793   1.804  13.656 -0.2466  0.2606 -0.2621
 1630DECAN   C916289   7.688   1.912  13.623  0.0278  0.8252  0.6705
 1630DECAN  C1016290   7.734   2.024  13.529  0.0290  0.6486  0.4595
 1631DECAN   C116291   6.855   8.212   6.891 -0.3830  0.3797  0.3908
 1631DECAN   C216292   6.865   8.317   6.779  0.3178  0.2688  0.3433
 1631DECAN   C316293   6.977   8.419   6.807  0.5507  0.0471  0.2146
 1631DECAN   C416294   7.115   8.354   6.826  0.7191  0.4098  0.2468
 1631DECAN   C516295   7.112   8.263   6.950  0.6713 -0.0496 -0.0883
 1631DECAN   C616296   7.240   8.193   6.998  0.6722  0.0748  0.0970
 1631DECAN   C716297   7.242   8.164   7.149 -0.1273  0.1203  0.1191
 1631DECAN   C816298   7.342   8.058   7.199 -0.2723 -0.1446 -0.1513
 1631DECAN   C916299   7.306   7.919   7.145 -0.1258 -0.1056 -0.3545
 1631DECAN  C1016300   7.380   7.803   7.215  0.1546  0.5810  0.4993
 1632DECAN   C116301  10.027   6.872   5.294  0.0533  0.0147 -0.2216
 1632DECAN   C216302  10.128   6.819   5.398 -0.5101 -0.0414  0.3038
 1632DECAN   C316303  10.077   6.748   5.525 -0.1091 -0.0210  0.4756
 1632DECAN   C416304  10.190   6.691   5.612 -0.1727 -0.2867  0.3836
 1632DECAN   C516305  10.160   6.640   5.755  0.2099 -0.0515  0.5493
 1632DECAN   C616306  10.280   6.597   5.841  0.5168  0.1007  0.1994
 1632DECAN   C716307  10.252   6.558   5.987  0.4485  0.7589  0.3619
 1632DECAN   C816308  10.379   6.505   6.057 -0.0675  0.0095  0.7362
 1632DECAN   C916309  10.501   6.598   6.052 -0.1820  0.1221 -0.2395
 1632DECAN  C1016310  10.606   6.551   6.156 -0.3252  0.1352 -0.0879
 1633DECAN   C116311   4.757   5.502   9.277  0.1570 -0.5179  0.3313
 1633DECAN   C216312   4.834   5.596   9.182 -0.5331 -0.1858  0.0911
 1633DECAN   C316313   4.764   5.619   9.047 -0.5072  0.4191  0.1792
 1633DECAN   C416314   4.836   5.714   8.949  0.2610 -0.2737  0.0540
 1633DECAN   C516315   4.758   5.739   8.819  0.2150  0.1819  0.1664
 1633DECAN   C616316   4.835   5.802   8.701  0.3739 -0.3565 -0.0182
 1633DECAN   C716317   4.943   5.715   8.633  0.6519 -0.1522  0.1640
 1633DECAN   C816318   4.872   5.591   8.576  0.3381 -0.0050  0.2321
 1633DECAN   C916319   4.983   5.503   8.516  0.0107 -0.0122 -0.3742
 1633DECAN  C1016320   4.931   5.361   8.487  0.7811 -0.3163 -0.2880
 1634DECAN   C116321   8.193   5.123  10.943 -0.1232 -0.3593 -0.1164
 1634DECAN   C216322   8.306   5.085  10.845 -0.0745 -0.5896  0.0293
 1634DECAN   C316323   8.292   4.948  10.777  0.0055 -0.5935  0.0220
 1634DECAN   C416324   8.424   4.906  10.711  0.2577  0.5262 -0.1989
 1634DECAN   C516325   8.452   4.985  10.582 -0.0984  0.2119 -0.4692
 1634DECAN   C616326   8.575   4.926  10.511  0.1112  0.1241 -0.0341
 1634DECAN   C716327   8.599   5.010  10.384 -0.2182  0.4505  0.1183
 1634DECAN   C816328   8.744   4.999  10.333 -0.2822  0.2927 -0.0284
 1634DECAN   C916329   8.788   4.852  10.318 -0.0504  0.3934 -0.3324
 1634DECAN  C1016330   8.935   4.851  10.274  0.1663 -0.0246  0.3929
 1635DECAN   C116331   9.893   8.104   5.119 -0.4368  0.2124  0.6832
 1635DECAN   C216332   9.827   8.164   4.994  0.0043 -0.6095  0.0470
 1635DECAN   C316333   9.677   8.130   4.994 -0.0843 -0.2322 -0.4044
 1635DECAN   C416334   9.627   8.155   5.137  0.0298  0.2918 -0.4547
 1635DECAN   C516335   9.475   8.135   5.155  0.0329  0.5574 -0.1104
 1635DECAN   C616336   9.441   8.159   5.303 -0.8286  1.0341 -0.3799
 1635DECAN   C716337   9.305   8.118   5.361 -0.2151 -0.4052  0.0968
 1635DECAN   C816338   9.199   8.218   5.309  0.3177 -0.1125 -0.4358
 1635DECAN   C916339   9.061   8.199   5.373  0.1576  0.5573 -0.5811
 1635DECAN  C1016340   9.051   8.272   5.508  0.3693 -0.1901 -0.1556
 1636DECAN   C116341   3.663   3.002  12.800  0.1627 -0.2226  0.4837
 1636DECAN   C216342   3.778   2.900  12.782  0.0308 -0.3651  0.4448
 1636DECAN   C316343   3.919   2.961  12.777 -0.1461  0.0417  0.3236
 1636DECAN   C416344   4.028   2.855  12.750 -0.4387 -0.2361  0.2202
 1636DECAN   C516345   4.005   2.768  12.625  0.5976 -0.5408  0.2270
 1636DECAN   C616346   4.124   2.679  12.586  0.1659 -0.7803 -0.5583
 1636DECAN   C716347   4.221   2.769  12.507  0.3786 -0.2283  0.3226
 1636DECAN   C816348   4.348   2.700  12.454  0.0893 -0.1979 -0.4210
 1636DECAN   C916349   4.431   2.800  12.371  0.0839  0.0986 -0.0704
 1636DECAN  C1016350   4.550   2.746  12.289  0.1634  0.3128 -0.0975
 1637DECAN   C116351   4.955   9.563  11.743 -0.0426 -0.3678  0.2881
 1637DECAN   C216352   4.809   9.598  11.707  0.3311  0.3340 -0.5534
 1637DECAN   C316353   4.801   9.698  11.589 -0.2923  0.7930 -0.1321
 1637DECAN   C416354   4.657   9.747  11.566 -0.7890 -0.6962 -0.3079
 1637DECAN   C516355   4.636   9.832  11.440 -0.3868 -0.2120 -0.0522
 1637DECAN   C616356   4.644   9.766  11.301 -1.0267 -0.5611  0.0769
 1637DECAN   C716357   4.626   9.866  11.186  0.0267 -0.1875  0.2303
 1637DECAN   C816358   4.698  10.001  11.204  0.0937 -0.1921  0.0054
 1637DECAN   C916359   4.706  10.083  11.074 -0.2065  0.1694  0.2120
 1637DECAN  C1016360   4.838  10.057  10.998 -0.0954  0.6416  0.2421
 1638DECAN   C116361   6.545   6.702   8.326  0.3332  0.4600  0.2294
 1638DECAN   C216362   6.639   6.581   8.309 -0.4992 -0.1514 -0.0747
 1638DECAN   C316363   6.687   6.570   8.163 -0.3075 -0.3845  0.0045
 1638DECAN   C416364   6.755   6.441   8.113  0.1753  0.0818 -0.5621
 1638DECAN   C516365   6.681   6.312   8.154 -0.1324  0.3429 -0.2902
 1638DECAN   C616366   6.666   6.295   8.306  0.4582 -0.0731 -0.2718
 1638DECAN   C716367   6.608   6.162   8.357  0.3424 -0.0803 -0.4226
 1638DECAN   C816368   6.645   6.138   8.504 -0.4044 -0.0956 -0.2348
 1638DECAN   C916369   6.549   6.208   8.603 -0.0676 -0.0940  0.0941
 1638DECAN  C1016370   6.549   6.361   8.582 -0.1224 -0.0657  0.3040
 1639DECAN   C116371   4.591   1.269  14.583  0.6003 -0.2635  0.8121
 1639DECAN   C216372   4.626   1.371  14.693 -0.1569  0.1576  0.6651
 1639DECAN   C316373   4.609   1.516  14.642  0.1400  0.0846  0.3576
 1639DECAN   C416374   4.629   1.622  14.752  0.1405 -0.0773  0.5144
 1639DECAN   C516375   4.635   1.766  14.697 -0.2068 -0.2248  0.0753
 1639DECAN   C616376   4.631   1.862  14.817  0.5504 -0.3630  0.2181
 1639DECAN   C716377   4.639   2.007  14.766  0.5732 -0.4470 -0.0178
 1639DECAN   C816378   4.765   2.028  14.680  0.3561 -0.5544 -0.3622
 1639DECAN   C916379   4.772   2.173  14.628  0.4485 -0.3842  0.1252
 1639DECAN  C1016380   4.650   2.236  14.558  0.5891 -0.3718 -0.1059
 1640DECAN   C116381   5.255  10.854   8.284 -0.2510  0.5040 -0.1992
 1640DECAN   C216382   5.137  10.795   8.365  0.1254  0.1684  0.1064
 1640DECAN   C316383   4.996  10.838   8.322  0.3955  0.5347 -0.4244
 1640DECAN   C416384   4.946  10.784   8.187  0.0754 -0.1325 -0.0396
 1640DECAN   C516385   5.022  10.830   8.062 -0.0078  0.1185  0.0026
 1640DECAN   C616386   4.946  10.782   7.937  0.3393  0.3503 -0.2992
 1640DECAN   C716387   4.976  10.853   7.804 -0.3080  0.1993 -0.5288
 1640DECAN   C816388   5.128  10.850   7.775 -0.2570 -0.0300 -0.2410
 1640DECAN   C916389   5.177  10.950   7.669  0.3052 -0.4805 -0.4091
 1640DECAN  C1016390   5.317  10.922   7.611  0.7012  0.1974  0.2040
 1641DECAN   C116391   3.217   7.838  12.154 -0.1714 -0.4950 -0.0314
 1641DECAN   C216392   3.088   7.786  12.088 -0.0823 -0.1323 -0.4971
 1641DECAN   C316393   3.012   7.702  12.192 -0.1240  0.0019 -0.4216
 1641DECAN   C416394   2.892   7.623  12.138 -0.4138 -0.2109  0.5135
 1641DECAN   C516395   2.934   7.503  12.051  0.0074  0.2044  0.1467
 1641DECAN   C616396   2.819   7.402  12.055  0.1938  0.0101  0.6540
 1641DECAN   C716397   2.807   7.326  12.189  0.8328 -0.5673  0.3882
 1641DECAN   C816398   2.703   7.214  12.184  0.0743  0.1536 -0.3305
 1641DECAN   C916399   2.659   7.169  12.324  0.5383  0.0711 -0.2094
 1641DECAN  C1016400   2.570   7.271  12.398 -0.1591 -0.5718 -0.1467
 1642DECAN   C116401   2.617   2.176  14.505 -0.3030  0.3122  0.3464
 1642DECAN   C216402   2.683   2.280  14.597  0.1604  0.0298  0.3427
 1642DECAN   C316403   2.619   2.420  14.601 -0.0765 -0.0654 -0.0392
 1642DECAN   C416404   2.702   2.527  14.675  0.2654  0.0595 -0.5983
 1642DECAN   C516405   2.628   2.659  14.702 -0.1881 -0.3654  0.2632
 1642DECAN   C616406   2.502   2.653  14.791 -0.0405  0.6586  0.5518
 1642DECAN   C716407   2.533   2.567  14.915  0.0163 -0.4050 -0.1881
 1642DECAN   C816408   2.416   2.566  15.015  0.1802  0.4204  0.0195
 1642DECAN   C916409   2.351   2.705  15.026 -0.2705  0.2176 -0.0529
 1642DECAN  C1016410   2.240   2.720  15.132  0.4152 -0.2472  0.7415
 1643DECAN   C116411   1.731   6.210  12.335  0.8557 -0.5335 -0.1799
 1643DECAN   C216412   1.825   6.089  12.319  0.5089 -0.7946 -0.2589
 1643DECAN   C316413   1.921   6.114  12.201  0.1553  0.5266 -0.2904
 1643DECAN   C416414   2.044   6.022  12.186 -0.0615  0.2029 -0.1171
 1643DECAN   C516415   2.144   6.079  12.083 -0.4609 -0.1455 -0.7074
 1643DECAN   C616416   2.216   6.208  12.128 -0.1613 -0.4485 -0.3067
 1643DECAN   C716417   2.321   6.262  12.029 -0.0352 -0.4213 -0.1569
 1643DECAN   C816418   2.315   6.415  12.020 -0.1684 -0.4769 -1.0424
 1643DECAN   C916419   2.381   6.488  11.901  0.6092  0.3403 -0.1252
 1643DECAN  C1016420   2.340   6.422  11.768 -0.4563 -0.2734  0.4956
 1644DECAN   C116421   7.182   7.925  12.656 -0.0153  0.0119  0.2861
 1644DECAN   C216422   7.069   8.029  12.666  0.0880  0.1134  0.4042
 1644DECAN   C316423   7.102   8.137  12.770 -0.1940  0.6346 -0.0392
 1644DECAN   C416424   6.979   8.228  12.792 -0.8291 -0.2870  0.2707
 1644DECAN   C516425   7.016   8.363  12.856 -0.4726  0.1460 -0.8206
 1644DECAN   C616426   7.104   8.464  12.782  0.2283  0.0692 -0.0989
 1644DECAN   C716427   7.241   8.408  12.738  0.0782 -0.5583  0.2213
 1644DECAN   C816428   7.346   8.504  12.679 -0.2939 -0.2747  0.0072
 1644DECAN   C916429   7.490   8.453  12.702 -0.3065 -0.1401  0.3969
 1644DECAN  C1016430   7.542   8.334  12.619 -0.5241  0.0802 -0.0622
 1645DECAN   C116431   4.794   5.594   9.773  0.0319  0.2914  0.1277
 1645DECAN   C216432   4.837   5.733   9.722  0.0451  0.2750  0.0944
 1645DECAN   C316433   4.818   5.743   9.569  0.0007  0.1150  0.0890
 1645DECAN   C416434   4.857   5.887   9.533  0.4352  0.0229  0.1846
 1645DECAN   C516435   5.005   5.929   9.547  0.5858 -0.3575 -0.2349
 1645DECAN   C616436   5.031   6.072   9.497 -0.3264 -0.2189 -0.3348
 1645DECAN   C716437   5.027   6.074   9.343 -0.3801  0.0858 -0.3313
 1645DECAN   C816438   5.138   5.982   9.289 -0.1980  0.1399 -0.0486
 1645DECAN   C916439   5.149   5.977   9.135 -0.3354  0.1785 -0.0601
 1645DECAN  C1016440   5.292   5.940   9.094 -0.2638 -0.3941  0.6720
 1646DECAN   C116441   8.140   4.663  13.136  0.0456 -0.3778  0.2602
 1646DECAN   C216442   8.280   4.721  13.164 -0.3023  0.5866  0.0073
 1646DECAN   C316443   8.316   4.724  13.313 -0.5868 -0.0526  0.0903
 1646DECAN   C416444   8.447   4.803  13.331 -0.6660  0.1919 -0.3913
 1646DECAN   C516445   8.497   4.798  13.477 -0.3383  0.3790 -0.4963
 1646DECAN   C616446   8.641   4.852  13.479 -0.0390 -0.4173 -0.3232
 1646DECAN   C716447   8.710   4.837  13.616  0.5416 -0.3045 -0.6009
 1646DECAN   C816448   8.829   4.933  13.634  0.4383 -0.2184 -0.3780
 1646DECAN   C916449   8.787   5.081  13.634  0.7294 -0.1352 -0.0797
 1646DECAN  C1016450   8.892   5.178  13.691 -0.0028  0.6227 -0.0057
 1647DECAN   C116451   8.259   6.070  11.691  0.1121 -0.2002  0.3190
 1647DECAN   C216452   8.140   6.155  11.736 -0.2639 -0.1633 -0.7092
 1647DECAN   C316453   8.152   6.295  11.673 -0.3164  0.1413 -0.0515
 1647DECAN   C416454   8.074   6.400  11.755  0.0679  0.0992  0.3756
 1647DECAN   C516455   7.921   6.379  11.756  0.1405 -0.4933 -0.1009
 1647DECAN   C616456   7.843   6.471  11.851  0.1000 -0.0557 -0.5511
 1647DECAN   C716457   7.690   6.466  11.840  0.0538 -0.3140  0.1558
 1647DECAN   C816458   7.612   6.482  11.972 -0.7985  0.2670 -0.3961
 1647DECAN   C916459   7.635   6.615  12.045  0.9952 -0.2538  0.0414
 1647DECAN  C1016460   7.758   6.628  12.137  0.2348  0.5135  0.9692
 1648DECAN   C116461   2.557   0.950  13.393  0.5754  0.1081 -0.5344
 1648DECAN   C216462   2.608   1.009  13.525 -0.2504 -0.0556 -0.1367
 1648DECAN   C316463   2.748   1.072  13.513 -0.0620 -0.3883  0.2841
 1648DECAN   C416464   2.774   1.183  13.409  0.0873 -0.3401  0.3715
 1648DECAN   C516465   2.884   1.282  13.451 -0.1469 -0.1593  0.5595
 1648DECAN   C616466   3.021   1.218  13.479  0.2819  0.2931 -0.4808
 1648DECAN   C716467   3.137   1.314  13.509 -0.1469  0.4592  0.6752
 1648DECAN   C816468   3.184   1.420  13.407 -0.0644 -0.0586  0.1714
 1648DECAN   C916469   3.279   1.518  13.477 -0.4628  0.2846  0.2386
 1648DECAN  C1016470   3.308   1.640  13.388  0.1845 -0.0555 -0.0286
 1649DECAN   C116471   6.193   0.553   5.574  0.1511 -0.2776  0.3586
 1649DECAN   C216472   6.110   0.621   5.685 -0.0091 -0.4030  0.3146
 1649DECAN   C316473   6.053   0.758   5.646 -0.0378 -0.4246  0.2807
 1649DECAN   C416474   5.955   0.824   5.744 -0.0389  0.9913 -0.6301
 1649DECAN   C516475   6.025   0.898   5.859  0.0241  0.1825 -0.1356
 1649DECAN   C616476   5.943   1.023   5.898  0.2438  0.2655  0.0643
 1649DECAN   C716477   6.011   1.107   6.008  0.3702  0.0165  0.1796
 1649DECAN   C816478   5.930   1.234   6.039  0.2616  0.1990 -0.7946
 1649DECAN   C916479   5.987   1.313   6.158 -0.6819 -0.0878 -0.1356
 1649DECAN  C1016480   5.914   1.442   6.201  0.1750  0.2011  0.4843
 1650DECAN   C116481   2.878   0.933   4.900 -0.4103  0.4210  0.7443
 1650DECAN   C216482   2.973   0.851   4.990 -0.0212  0.0654  0.0197
 1650DECAN   C316483   2.973   0.893   5.139 -0.0555  0.0554  0.0221
 1650DECAN   C416484   3.089   0.834   5.222 -0.1771  0.3635  0.4131
 1650DECAN   C516485   3.067   0.850   5.373 -0.5111 -0.0498  0.4130
 1650DECAN   C616486   3.176   0.770   5.448  0.0771  0.4205  0.0751
 1650DECAN   C716487   3.317   0.788   5.389 -0.0847 -0.3718 -0.5806
 1650DECAN   C816488   3.331   0.729   5.248  0.1535 -1.0927 -0.2593
 1650DECAN   C916489   3.472   0.745   5.189 -0.0981 -0.3210 -0.6717
 1650DECAN  C1016490   3.579   0.644   5.236 -0.3990 -0.4822 -0.3365
 1651DECAN   C116491  10.098   1.973   9.754  0.3959 -0.2304  0.2197
 1651DECAN   C216492  10.244   1.942   9.789  0.4378  0.2192  0.4601
 1651DECAN   C316493  10.344   2.027   9.708  0.0271  0.0684 -0.2096
 1651DECAN   C416494  10.485   1.978   9.742 -0.0626  0.3289  0.5520
 1651DECAN   C516495  10.516   1.832   9.704  0.0596  0.5419 -0.1663
 1651DECAN   C616496  10.468   1.728   9.807  0.0111  0.0172 -0.7126
 1651DECAN   C716497  10.540   1.751   9.940 -0.7970  0.0766 -0.2802
 1651DECAN   C816498  10.548   1.618  10.017  0.9837  0.5268  0.3793
 1651DECAN   C916499  10.618   1.510   9.932  0.2096  0.1047  0.2636
 1651DECAN  C1016500  10.749   1.552   9.862 -0.0902 -0.1508 -0.4595
 1652DECAN   C116501  10.192  10.698   8.123 -0.3338 -0.0551 -0.2885
 1652DECAN   C216502  10.110  10.805   8.198  0.1781  0.3056 -0.2375
 1652DECAN   C316503  10.043  10.758   8.329  0.1295  0.0829 -0.3400
 1652DECAN   C416504   9.973  10.873   8.404  0.4052  0.1610 -0.1979
 1652DECAN   C516505   9.880  10.964   8.322  0.1888  0.1448  0.0279
 1652DECAN   C616506   9.852  11.104   8.379 -0.4235  0.0242  0.0277
 1652DECAN   C716507   9.731  11.165   8.305 -0.0848 -0.1743 -0.6941
 1652DECAN   C816508   9.685   0.047   8.380 -0.2409 -0.5182 -0.2070
 1652DECAN   C916509   9.564   0.124   8.323  0.1928  0.2029 -0.1699
 1652DECAN  C1016510   9.510   0.224   8.427  0.3891  0.2788 -0.1409
 1653DECAN   C116511   3.658   4.944  11.518  0.5694 -0.2442 -0.1168
 1653DECAN   C216512   3.761   4.837  11.477  0.4319 -0.4648  0.1141
 1653DECAN   C316513   3.695   4.714  11.412 -0.0022 -0.1682 -0.0105
 1653DECAN   C416514   3.782   4.587  11.408  0.3116  0.0459 -0.0489
 1653DECAN   C516515   3.785   4.505  11.539  0.1082 -0.0440 -0.0982
 1653DECAN   C616516   3.855   4.584  11.651  0.1684  0.5606 -0.5572
 1653DECAN   C716517   3.817   4.535  11.792 -0.1525 -0.4586 -0.9835
 1653DECAN   C816518   3.841   4.623  11.917  0.1167 -1.3745 -0.3802
 1653DECAN   C916519   3.839   4.546  12.050 -0.3722  0.0162  0.4373
 1653DECAN  C1016520   3.828   4.638  12.173  0.3687  0.6871  0.0076
 1654DECAN   C116521   9.637   7.046  13.813  0.2188  0.0764 -0.3791
 1654DECAN   C216522   9.697   6.936  13.724  0.2326 -0.1177 -0.1325
 1654DECAN   C316523   9.851   6.930  13.719  0.2215 -0.3584 -0.2134
 1654DECAN   C416524   9.910   6.819  13.630 -0.0452 -0.8652  0.2383
 1654DECAN   C516525   9.861   6.833  13.485  0.0803 -0.4830  0.2304
 1654DECAN   C616526   9.917   6.735  13.380  0.4385 -0.3982  0.3411
 1654DECAN   C716527   9.859   6.594  13.397 -0.0585 -0.2354  0.0150
 1654DECAN   C816528   9.903   6.507  13.279  0.1366  0.0604 -0.1310
 1654DECAN   C916529   9.858   6.360  13.288  0.1858  0.0677  0.2359
 1654DECAN  C1016530   9.939   6.284  13.181 -0.1980  0.1428 -0.1108
 1655DECAN   C116531   3.156   1.722  12.332  0.4042  0.4078 -0.3560
 1655DECAN   C216532   3.137   1.723  12.485  0.0911  0.5665 -0.3947
 1655DECAN   C316533   3.249   1.794  12.564 -0.3514  0.9401 -0.0956
 1655DECAN   C416534   3.222   1.796  12.715 -0.3653 -0.0504 -0.0751
 1655DECAN   C516535   3.344   1.842  12.798 -0.3965  0.4224 -0.2890
 1655DECAN   C616536   3.344   1.787  12.942  0.0209  0.0902 -0.4136
 1655DECAN   C716537   3.470   1.818  13.024 -0.0010 -0.0947 -0.3086
 1655DECAN   C816538   3.602   1.754  12.978  0.2145 -0.1172  0.3285
 1655DECAN   C916539   3.605   1.729  12.826  0.6902  0.5747  0.2217
 1655DECAN  C1016540   3.742   1.686  12.771  0.3725  0.2856 -0.3564
 1656DECAN   C116541   8.645  10.835  11.366 -0.1835  0.8782 -0.5511
 1656DECAN   C216542   8.775  10.862  11.288  0.2536  0.0101 -0.1391
 1656DECAN   C316543   8.885  10.940  11.362  0.1729  0.1991 -0.2168
 1656DECAN   C416544   9.007  10.983  11.279  0.2058  0.1574 -0.1918
 1656DECAN   C516545   9.102  11.077  11.356 -0.0526  0.1480  0.1372
 1656DECAN   C616546   9.030  11.195  11.424 -0.1679  0.6142 -0.7744
 1656DECAN   C716547   8.935  11.143  11.534 -0.0794  0.3873 -0.8027
 1656DECAN   C816548   8.835   0.001  11.593 -0.0475  0.1161 -0.2756
 1656DECAN   C916549   8.709  11.183  11.655  0.0880  0.0217 -0.0911
 1656DECAN  C1016550   8.615   0.038  11.726  0.0387  0.0212 -0.1565
 1657DECAN   C116551   7.122  10.788   5.512  0.1211 -0.4262  0.3436
 1657DECAN   C216552   7.025  10.781   5.631  0.0157  0.2798  0.3014
 1657DECAN   C316553   6.947  10.914   5.635  0.3836  0.5025  0.0744
 1657DECAN   C416554   6.880  10.952   5.768 -0.2245 -0.1722 -0.0364
 1657DECAN   C516555   6.806  11.087   5.761 -0.1704 -0.1464 -0.1164
 1657DECAN   C616556   6.776  11.142   5.902 -0.1258  0.0901 -0.1995
 1657DECAN   C716557   6.727   0.044   5.889 -0.7360 -0.0832  0.1486
 1657DECAN   C816558   6.668   0.096   6.021 -0.9296 -0.2460  0.1271
 1657DECAN   C916559   6.667   0.249   6.038  0.5403 -0.2372  0.2219
 1657DECAN  C1016560   6.631   0.301   6.178  0.3139  0.4416 -0.0878
 1658DECAN   C116561   2.914   6.260   6.889 -0.4298 -0.2121  0.0883
 1658DECAN   C216562   2.810   6.151   6.922 -0.4736 -0.0738  0.4106
 1658DECAN   C316563   2.794   6.055   6.803 -0.4367  0.2076  0.1785
 1658DECAN   C416564   2.702   5.935   6.829  0.0564 -0.3246 -0.4838
 1658DECAN   C516565   2.558   5.974   6.867  0.4211  0.4113  0.1762
 1658DECAN   C616566   2.470   5.869   6.937  0.7112  0.2061  0.2360
 1658DECAN   C716567   2.524   5.845   7.079  0.6246 -0.5005  0.1550
 1658DECAN   C816568   2.501   5.968   7.169  0.7150 -0.2655 -0.1426
 1658DECAN   C916569   2.577   5.965   7.303 -0.3469 -0.0961  0.4697
 1658DECAN  C1016570   2.574   6.094   7.386  0.2106  0.2671 -0.0687
 1659DECAN   C116571   7.928   4.386  14.463 -0.1690 -0.2041 -0.0117
 1659DECAN   C216572   8.048   4.421  14.552  0.0490 -0.2096 -0.3005
 1659DECAN   C316573   8.050   4.333  14.679 -0.1635  0.3251  0.0738
 1659DECAN   C416574   7.921   4.347  14.762 -0.5590  0.3221 -0.5398
 1659DECAN   C516575   7.938   4.269  14.893 -0.4482  0.5107 -0.4417
 1659DECAN   C616576   8.009   4.136  14.859 -0.4307  0.4335 -0.1072
 1659DECAN   C716577   8.047   4.059  14.987 -0.5890  0.1954 -0.2045
 1659DECAN   C816578   8.084   3.912  14.960 -0.2005  0.2798 -0.1250
 1659DECAN   C916579   8.141   3.838  15.083  0.1841  0.3463 -0.2597
 1659DECAN  C1016580   8.282   3.880  15.128  0.7354 -0.8259 -0.8637
 1660DECAN   C116581   4.163  10.413  12.992 -0.2614 -0.4119  0.7360
 1660DECAN   C216582   4.252  10.516  12.921 -0.7764 -0.3893  0.1132
 1660DECAN   C316583   4.185  10.655  12.912 -0.2223 -0.1263  0.0008
 1660DECAN   C416584   4.192  10.734  13.043  0.0714  0.0255 -0.1063
 1660DECAN   C516585   4.119  10.673  13.164  0.3120 -0.3890 -0.1675
 1660DECAN   C616586   4.140  10.751  13.295 -0.1841 -0.2345 -0.1790
 1660DECAN   C716587   4.100  10.900  13.287 -0.1027 -0.1986  0.0673
 1660DECAN   C816588   4.203  10.988  13.214 -0.2464 -0.1834 -0.1151
 1660DECAN   C916589   4.174  11.136  13.246 -0.3105 -0.1235 -0.4460
 1660DECAN  C1016590   4.283  11.232  13.195 -0.2048 -0.0948 -0.1683
 1661DECAN   C116591   2.279   5.440   6.437  0.0568  0.3795  0.0232
 1661DECAN   C216592   2.353   5.560   6.376  0.1418  0.5032  0.3663
 1661DECAN   C316593   2.484   5.595   6.449  0.5630 -0.2670 -0.0103
 1661DECAN   C416594   2.552   5.714   6.379 -0.2006 -0.1375 -0.5438
 1661DECAN   C516595   2.685   5.737   6.454 -0.4403  0.1100 -0.1931
 1661DECAN   C616596   2.756   5.851   6.379  0.2022 -0.2785 -0.1796
 1661DECAN   C716597   2.686   5.986   6.401 -0.0796 -0.4348 -0.1050
 1661DECAN   C816598   2.745   6.091   6.304  0.8105 -0.3813  0.4855
 1661DECAN   C916599   2.679   6.230   6.311  0.5306 -0.4305 -0.9984
 1661DECAN  C1016600   2.748   6.320   6.207  0.5849 -0.3353 -0.8791
 1662DECAN   C116601   2.555   1.406  12.842  0.5262 -0.1884 -0.3502
 1662DECAN   C216602   2.448   1.382  12.950  0.3680  0.2893 -0.3991
 1662DECAN   C316603   2.343   1.491  12.979 -0.0972 -0.1997 -0.2247
 1662DECAN   C416604   2.238   1.482  12.867  0.3558 -0.4012 -0.6356
 1662DECAN   C516605   2.138   1.599  12.857  0.5021 -0.2595 -0.4616
 1662DECAN   C616606   2.042   1.580  12.738 -0.3446  0.0673  0.1649
 1662DECAN   C716607   1.955   1.706  12.723 -0.0484  0.2086 -0.3733
 1662DECAN   C816608   1.886   1.748  12.854 -0.2985 -0.0261 -0.4300
 1662DECAN   C916609   1.985   1.778  12.968  0.2656 -0.1260 -0.8886
 1662DECAN  C1016610   1.936   1.864  13.087  0.7757 -0.4644 -0.4274
 1663DECAN   C116611   8.433   5.704   3.686  0.0526 -0.0043 -0.5039
 1663DECAN   C216612   8.530   5.795   3.764 -0.4300  0.1035 -0.0269
 1663DECAN   C316613   8.486   5.828   3.908  0.3263 -0.1195  0.2557
 1663DECAN   C416614   8.596   5.912   3.977  0.3708 -0.1095  0.1726
 1663DECAN   C516615   8.554   5.965   4.115 -0.7968  0.2216 -0.2894
 1663DECAN   C616616   8.474   5.867   4.203  0.3625 -0.2573  0.2662
 1663DECAN   C716617   8.352   5.924   4.279  0.4484 -0.1164  0.2990
 1663DECAN   C816618   8.234   5.966   4.191  0.5631  0.5864  0.4789
 1663DECAN   C916619   8.115   6.024   4.270 -0.0124  0.2636 -0.1387
 1663DECAN  C1016620   8.010   6.099   4.185  0.5263  0.4871 -0.6102
 1664DECAN   C116621   8.586   8.849  13.673 -0.3431  0.0949  0.4061
 1664DECAN   C216622   8.709   8.763  13.708 -0.1447  0.4095  0.4868
 1664DECAN   C316623   8.702   8.628  13.635  0.1422  0.6514  0.0089
 1664DECAN   C416624   8.833   8.548  13.650 -0.1616  0.0956 -0.2756
 1664DECAN   C516625   8.929   8.574  13.532  0.0166  0.4374 -0.0544
 1664DECAN   C616626   8.998   8.712  13.537  0.7802  0.0496  0.2527
 1664DECAN   C716627   9.079   8.753  13.413  0.3707  0.2880  0.0616
 1664DECAN   C816628   9.107   8.903  13.391  0.2483  0.2538 -0.3381
 1664DECAN   C916629   8.989   8.998  13.363  0.3040  0.5857  0.5153
 1664DECAN  C1016630   9.021   9.126  13.284 -0.0065  0.4716  0.2043
 1665DECAN   C116631   5.938   3.063  10.951 -0.8766 -0.8522 -0.6486
 1665DECAN   C216632   5.914   3.204  10.893 -0.0631 -0.3435  0.2019
 1665DECAN   C316633   5.778   3.223  10.821  0.1468  0.2021 -0.0495
 1665DECAN   C416634   5.756   3.353  10.741  0.2099 -0.0137 -0.4192
 1665DECAN   C516635   5.624   3.360  10.662  0.1612  0.0960 -0.3301
 1665DECAN   C616636   5.609   3.495  10.588 -0.0920  0.2187 -0.0551
 1665DECAN   C716637   5.694   3.511  10.461 -0.4478  0.1472 -0.3044
 1665DECAN   C816638   5.646   3.420  10.347  0.4683 -0.3844 -0.2808
 1665DECAN   C916639   5.690   3.453  10.203  0.5291  0.1424 -0.1435
 1665DECAN  C1016640   5.686   3.337  10.101 -0.4135  0.2130 -0.1932
 1666DECAN   C116641   5.224   2.733   7.657 -0.1937 -0.0115 -0.0125
 1666DECAN   C216642   5.090   2.794   7.611  0.1256  0.3390 -0.4913
 1666DECAN   C316643   5.020   2.850   7.736 -0.0824  0.1952 -0.5441
 1666DECAN   C416644   4.888   2.922   7.703 -0.3436  0.0791  0.2119
 1666DECAN   C516645   4.911   3.061   7.641 -0.0380  0.1012  0.3720
 1666DECAN   C616646   4.950   3.175   7.736  0.1506 -0.1258  0.5649
 1666DECAN   C716647   4.880   3.183   7.873 -0.5355  0.1222  0.2035
 1666DECAN   C816648   4.880   3.318   7.947 -0.0217  0.0395  0.3584
 1666DECAN   C916649   5.024   3.342   7.995  0.1565  0.1442 -0.2204
 1666DECAN  C1016650   5.037   3.484   8.054  0.3287  0.1434 -0.2555
 1667DECAN   C116651   9.392  11.044   6.770 -0.0960 -0.2621 -0.3726
 1667DECAN   C216652   9.505  11.024   6.872 -0.2443 -0.0534 -0.1683
 1667DECAN   C316653   9.490  11.118   6.993 -0.3072 -0.0964 -0.1429
 1667DECAN   C416654   9.598  11.105   7.102 -0.2503 -0.2854 -0.2226
 1667DECAN   C516655   9.577  11.202   7.220 -0.1557 -0.6147  0.0679
 1667DECAN   C616656   9.460  11.172   7.315 -0.1118  0.2546  0.4099
 1667DECAN   C716657   9.325  11.217   7.255 -0.2102 -0.2824  0.2196
 1667DECAN   C816658   9.211  11.187   7.354 -0.1765 -0.2163  0.2791
 1667DECAN   C916659   9.228  11.220   7.504  0.0780  1.0974 -0.0246
 1667DECAN  C1016660   9.100  11.181   7.581  0.3019 -0.9826 -0.6271
 1668DECAN   C116661   6.844   9.515  11.407 -0.1755  0.3994  0.2095
 1668DECAN   C216662   6.991   9.492  11.444 -0.1470  0.2882  0.0288
 1668DECAN   C316663   7.036   9.554  11.578  0.2193  0.6915 -0.2789
 1668DECAN   C416664   7.185   9.534  11.613  0.1039  0.2472 -0.0372
 1668DECAN   C516665   7.240   9.589  11.747  0.7947 -0.3390 -0.0755
 1668DECAN   C616666   7.392   9.592  11.772  0.7302  0.7316  0.2486
 1668DECAN   C716667   7.427   9.637  11.915 -0.6939  0.0374  0.8421
 1668DECAN   C816668   7.580   9.636  11.925 -0.6159 -0.3170 -0.1829
 1668DECAN   C916669   7.672   9.528  11.865  0.1351  0.2136 -0.0103
 1668DECAN  C1016670   7.821   9.548  11.900  0.2556  0.1337 -0.4666
 1669DECAN   C116671   7.434   4.052   9.242  0.3085 -0.1917 -0.3522
 1669DECAN   C216672   7.510   3.971   9.136 -0.0225 -0.5897 -0.2894
 1669DECAN   C316673   7.594   4.066   9.049  0.0673  0.0367  0.4679
 1669DECAN   C416674   7.695   3.985   8.966  0.4855  0.5641  0.4514
 1669DECAN   C516675   7.770   3.866   9.028  0.3267  0.2093 -0.0281
 1669DECAN   C616676   7.869   3.784   8.943 -0.1813 -0.2895 -0.1454
 1669DECAN   C716677   7.977   3.708   9.023  0.1573 -0.1031 -0.4270
 1669DECAN   C816678   8.077   3.805   9.090 -0.2706 -0.0165  0.0933
 1669DECAN   C916679   8.170   3.729   9.185  0.1224  0.0651 -0.2228
 1669DECAN  C1016680   8.281   3.819   9.243  0.1214  0.1353 -0.3301
 1670DECAN   C116681   3.020   2.833  10.549  0.5776 -0.4902 -0.2052
 1670DECAN   C216682   3.038   2.986  10.537  0.2937 -0.3996  0.4454
 1670DECAN   C316683   3.170   3.023  10.468  0.1256 -0.2166  0.2186
 1670DECAN   C416684   3.169   2.969  10.324 -0.2497  0.0618  0.1152
 1670DECAN   C516685   3.164   2.816  10.317  0.2247  0.0212  0.5714
 1670DECAN   C616686   3.247   2.754  10.202 -0.2400  0.1278  0.1736
 1670DECAN   C716687   3.394   2.731  10.240 -0.2016 -0.3469 -0.2605
 1670DECAN   C816688   3.477   2.688  10.117  0.0471  0.1888 -0.2812
 1670DECAN   C916689   3.626   2.668  10.152 -0.0192 -0.0976 -0.1554
 1670DECAN  C1016690   3.715   2.608  10.041  0.0217 -0.1653 -0.0854
 1671DECAN   C116691   1.365   1.575   9.599 -0.4804 -0.0131  0.1389
 1671DECAN   C216692   1.280   1.534   9.720 -0.3175 -0.3572  0.1380
 1671DECAN   C316693   1.133   1.498   9.689 -0.1647 -0.4661 -0.4706
 1671DECAN   C416694   1.076   1.395   9.789 -0.2743  0.3352  0.3005
 1671DECAN   C516695   1.095   1.460   9.928  0.3242  0.0885  0.3338
 1671DECAN   C616696   1.239   1.462   9.983  0.4858 -0.4801 -0.0518
 1671DECAN   C716697   1.228   1.508  10.130 -0.4191 -0.1720 -0.2092
 1671DECAN   C816698   1.365   1.535  10.195 -0.5125  0.3186 -0.2136
 1671DECAN   C916699   1.366   1.562  10.347 -0.2313 -0.3462 -0.0969
 1671DECAN  C1016700   1.503   1.544  10.415 -0.0146  0.5167 -0.2922
 1672DECAN   C116701   7.836   5.475   5.410 -0.3347  0.8353  0.1776
 1672DECAN   C216702   7.742   5.482   5.287 -0.1131 -0.2763 -0.0643
 1672DECAN   C316703   7.807   5.493   5.148  0.1339  0.3774  0.0982
 1672DECAN   C416704   7.699   5.468   5.041  0.0462  0.5770  0.1388
 1672DECAN   C516705   7.758   5.503   4.902  0.1326 -0.0027  0.0291
 1672DECAN   C616706   7.653   5.485   4.791  0.0487  0.4625  0.0303
 1672DECAN   C716707   7.695   5.522   4.648 -0.5948 -0.0501 -0.3016
 1672DECAN   C816708   7.764   5.406   4.576 -0.2380  0.0597 -0.1395
 1672DECAN   C916709   7.799   5.424   4.426 -0.5651  0.0995 -0.2104
 1672DECAN  C1016710   7.824   5.287   4.361 -0.0403 -0.2522  0.7085
 1673DECAN   C116711   1.616   4.956  13.685  0.2032 -0.3817 -0.7247
 1673DECAN   C216712   1.640   4.822  13.757  0.2035  0.1309  0.2478
 1673DECAN   C316713   1.788   4.791  13.784  0.0743 -0.2915  0.4714
 1673DECAN   C416714   1.828   4.646  13.820  0.0714 -0.4387 -0.1163
 1673DECAN   C516715   1.972   4.631  13.872  0.0740 -0.5859 -0.1669
 1673DECAN   C616716   2.067   4.671  13.758 -0.2705 -0.0786 -0.2806
 1673DECAN   C716717   2.036   4.808  13.695 -0.6409 -0.2088 -0.3851
 1673DECAN   C816718   2.163   4.870  13.633 -0.7449  0.0701 -0.3208
 1673DECAN   C916719   2.164   5.021  13.604 -0.1794  0.1180 -0.0673
 1673DECAN  C1016720   2.056   5.042  13.496  0.1959  0.2916 -0.4091
 1674DECAN   C116721   5.074  10.843  13.670  0.8507  0.1153 -0.1533
 1674DECAN   C216722   5.017  10.983  13.639  0.6315  0.1105  0.2260
 1674DECAN   C316723   4.929  11.020  13.760 -0.1129 -0.4815 -0.1239
 1674DECAN   C416724   5.013  11.090  13.868  0.1049 -0.8855 -0.0308
 1674DECAN   C516725   4.948  11.109  14.006 -0.3827 -0.4328 -0.3195
 1674DECAN   C616726   5.034  11.202  14.094 -0.5089 -0.1475 -0.4980
 1674DECAN   C716727   4.958  11.237  14.223  0.2608  0.1874 -0.1277
 1674DECAN   C816728   4.816   0.049  14.202  0.0892 -0.2666 -0.1986
 1674DECAN   C916729   4.734   0.076  14.330  0.1778  0.4605 -0.2918
 1674DECAN  C1016730   4.755   0.208  14.407  0.2076  0.5310 -0.4190
 1675DECAN   C116731   6.590   7.178  14.284 -0.2107 -0.3108  0.1005
 1675DECAN   C216732   6.691   7.077  14.342  0.4764  0.5584  0.4602
 1675DECAN   C316733   6.637   6.987  14.456 -0.5511 -0.5121 -0.8317
 1675DECAN   C416734   6.736   6.876  14.495 -0.1179  0.2620  0.3322
 1675DECAN   C516735   6.701   6.781  14.611 -0.3369 -0.5170 -0.3581
 1675DECAN   C616736   6.818   6.702  14.671  0.1575 -0.1526 -0.8243
 1675DECAN   C716737   6.897   6.782  14.776 -0.7675 -0.0666 -0.1738
 1675DECAN   C816738   6.985   6.699  14.871 -0.4931  0.2217 -0.1738
 1675DECAN   C916739   7.023   6.779  14.997  0.1002 -0.2982 -0.0152
 1675DECAN  C1016740   6.904   6.824  15.084  0.6577  0.2109  0.4908
 1676DECAN   C116741   2.177   6.690   7.102  0.1136 -0.3340  0.1667
 1676DECAN   C216742   2.205   6.681   7.253  0.1214  0.0089  0.1875
 1676DECAN   C316743   2.350   6.707   7.299  0.0031  0.2282  0.4402
 1676DECAN   C416744   2.367   6.646   7.439  0.1617 -0.2635  0.2091
 1676DECAN   C516745   2.500   6.694   7.500  0.2071  0.1755 -0.2233
 1676DECAN   C616746   2.490   6.654   7.649 -0.3679  0.3400 -0.2184
 1676DECAN   C716747   2.623   6.680   7.722 -0.1242 -0.5681 -0.3291
 1676DECAN   C816748   2.611   6.645   7.871 -0.4673  0.1291 -0.1851
 1676DECAN   C916749   2.508   6.724   7.953 -0.3706  0.2277 -0.1587
 1676DECAN  C1016750   2.458   6.662   8.085  1.3313  0.4953  0.6362
 1677DECAN   C116751   1.739   0.259   7.095 -0.6341 -0.0048  0.2305
 1677DECAN   C216752   1.681   0.320   6.966 -0.6678 -0.0153  0.2407
 1677DECAN   C316753   1.665   0.473   6.966 -0.3356  0.0208  0.3428
 1677DECAN   C416754   1.599   0.527   6.838 -0.4215 -0.3059  0.2499
 1677DECAN   C516755   1.557   0.675   6.845  0.0286 -0.1502 -0.3207
 1677DECAN   C616756   1.505   0.730   6.711  0.5249 -0.0435 -0.4726
 1677DECAN   C716757   1.595   0.721   6.586  0.7555  0.0517 -0.3136
 1677DECAN   C816758   1.517   0.786   6.470  0.0626 -0.5649 -0.1974
 1677DECAN   C916759   1.590   0.787   6.335 -0.3359 -0.2305 -0.4129
 1677DECAN  C1016760   1.686   0.908   6.333 -0.0640 -0.4235  0.5677
 1678DECAN   C116761   3.502   0.056   5.106  0.1606 -0.1627  0.0323
 1678DECAN   C216762   3.525   0.180   5.016  0.2119  0.1382  0.4567
 1678DECAN   C316763   3.646   0.267   5.053  0.2610  0.1642  0.2329
 1678DECAN   C416764   3.681   0.378   4.953  0.2785 -0.4684 -0.4757
 1678DECAN   C516765   3.824   0.430   4.976 -0.0232  0.2628 -0.2200
 1678DECAN   C616766   3.890   0.524   4.874 -0.0529  0.4756 -0.0447
 1678DECAN   C716767   4.032   0.568   4.914  0.0357 -0.4324  0.6844
 1678DECAN   C816768   4.098   0.673   4.821 -0.0845 -0.2898  0.7610
 1678DECAN   C916769   4.247   0.689   4.854  0.0528 -0.1384  0.0605
 1678DECAN  C1016770   4.341   0.569   4.828 -0.0434 -0.1977 -0.0171
 1679DECAN   C116771   7.257  11.091  14.466  0.0848  0.5463 -0.2305
 1679DECAN   C216772   7.122  11.054  14.402  0.0454  0.0849  0.1132
 1679DECAN   C316773   7.001  11.145  14.431  0.0704  0.0219  0.4183
 1679DECAN   C416774   6.881  11.075  14.364 -0.0244  0.9695 -0.4439
 1679DECAN   C516775   6.909  11.060  14.214  0.1558 -0.0051 -0.3195
 1679DECAN   C616776   6.823  10.962  14.131 -0.4837  0.6105 -0.3877
 1679DECAN   C716777   6.850  10.953  13.979 -0.0069  0.1341 -0.2757
 1679DECAN   C816778   6.982  10.886  13.934 -0.1198  0.0729 -0.5151
 1679DECAN   C916779   6.976  10.740  13.980  0.4929  0.1270 -0.2586
 1679DECAN  C1016780   7.001  10.735  14.132  0.0219 -0.2270 -0.1891
 1680DECAN   C116781   5.853   8.956   9.665 -0.1356 -0.1691 -0.1577
 1680DECAN   C216782   5.923   8.995   9.796 -0.5966  0.0740  0.0192
 1680DECAN   C316783   6.074   9.017   9.772 -0.4479 -0.3359  0.5706
 1680DECAN   C416784   6.159   9.074   9.887 -0.4105  0.4673  0.1507
 1680DECAN   C516785   6.307   9.100   9.853 -0.4080  0.0094 -0.2181
 1680DECAN   C616786   6.336   9.105   9.702 -0.0295  0.2411 -0.1393
 1680DECAN   C716787   6.352   8.960   9.653 -0.6791  0.1196  0.0033
 1680DECAN   C816788   6.366   8.951   9.500  0.6870 -0.1527  0.1288
 1680DECAN   C916789   6.418   8.815   9.450  0.1175 -0.4050  0.2157
 1680DECAN  C1016790   6.403   8.798   9.297  0.0732 -0.7234  0.2530
 1681DECAN   C116791   7.787   1.608   8.995  0.1316 -0.2145 -0.9328
 1681DECAN   C216792   7.824   1.461   9.016  0.3136  0.0575  0.7269
 1681DECAN   C316793   7.898   1.435   9.149  0.5013 -0.0570  0.6019
 1681DECAN   C416794   7.991   1.313   9.139  0.0414 -0.3673  0.0385
 1681DECAN   C516795   8.099   1.297   9.248  0.3297  0.4230 -0.1268
 1681DECAN   C616796   8.146   1.151   9.253  0.2248  0.4070  0.4708
 1681DECAN   C716797   8.221   1.107   9.380  0.4065 -0.4537  0.0735
 1681DECAN   C816798   8.260   0.961   9.408  0.2465 -0.4902  0.1056
 1681DECAN   C916799   8.141   0.870   9.373 -0.2440  0.1569  0.0873
 1681DECAN  C1016800   8.170   0.719   9.385 -0.1548  0.1460 -0.2537
 1682DECAN   C116801   4.925  10.024   7.154  0.2842  0.3042 -0.2397
 1682DECAN   C216802   5.051   9.976   7.081  0.3814 -0.1441  0.2182
 1682DECAN   C316803   5.030   9.949   6.931  0.1625  0.1335  0.1988
 1682DECAN   C416804   4.987  10.068   6.843 -0.1505 -0.6227 -0.6955
 1682DECAN   C516805   5.101  10.172   6.846 -0.2501 -0.5395  0.5478
 1682DECAN   C616806   5.097  10.270   6.728  0.6222 -0.7566  0.3362
 1682DECAN   C716807   5.082  10.203   6.590  0.2268 -0.5254  0.2665
 1682DECAN   C816808   4.936  10.164   6.558  0.1113 -0.2120  0.4110
 1682DECAN   C916809   4.926  10.086   6.426 -0.3663  0.2678  0.1625
 1682DECAN  C1016810   4.783  10.089   6.367 -0.0995 -0.3229 -0.5193
 1683DECAN   C116811  10.147   7.279   9.059 -0.0979 -0.1717 -0.1040
 1683DECAN   C216812  10.277   7.217   9.114 -0.3888 -0.3609  0.3826
 1683DECAN   C316813  10.374   7.317   9.178 -0.1370 -0.3031 -0.0801
 1683DECAN   C416814  10.468   7.252   9.281  0.2243  0.0185 -0.2035
 1683DECAN   C516815  10.564   7.357   9.339 -0.9917  1.1683 -0.2315
 1683DECAN   C616816  10.647   7.446   9.244  0.5693  0.2638  0.2473
 1683DECAN   C716817  10.571   7.548   9.157  0.3807 -0.0413  0.0546
 1683DECAN   C816818  10.661   7.642   9.076 -0.0121 -0.0903 -0.4430
 1683DECAN   C916819  10.578   7.731   8.981 -0.2465  0.3353  0.1572
 1683DECAN  C1016820  10.672   7.826   8.906 -0.0790  0.1143  0.0863
 1684DECAN   C116821   3.179   0.431   5.071 -0.2809  0.0021 -0.6948
 1684DECAN   C216822   3.158   0.280   5.051 -0.2725 -0.1602  0.4940
 1684DECAN   C316823   3.088   0.245   4.918  0.6546 -0.3510  0.0541
 1684DECAN   C416824   3.052   0.097   4.897  0.0031 -0.1956  0.0790
 1684DECAN   C516825   2.926   0.045   4.969 -0.0963 -0.0375  0.0205
 1684DECAN   C616826   2.861  11.162   4.910  0.0509 -0.2415  0.2966
 1684DECAN   C716827   2.723  11.141   4.976 -0.1891 -0.3871 -0.2469
 1684DECAN   C816828   2.746  11.109   5.125 -0.1122  0.0450 -0.1647
 1684DECAN   C916829   2.803  10.967   5.145 -0.3976 -0.0444  0.0262
 1684DECAN  C1016830   2.791  10.933   5.295 -0.0305  0.0302  0.0734
 1685DECAN   C116831  10.299   7.204  11.409  0.0299  0.1569 -0.2488
 1685DECAN   C216832  10.305   7.101  11.523  0.5992  0.4273 -0.0261
 1685DECAN   C316833  10.423   7.116  11.620  0.6243 -0.3584  0.0752
 1685DECAN   C416834  10.412   7.238  11.714 -0.3267 -0.3492 -0.0409
 1685DECAN   C516835  10.538   7.246  11.802 -0.2266 -0.2364 -0.1962
 1685DECAN   C616836  10.545   7.385  11.868 -0.0435 -0.3782  0.0849
 1685DECAN   C716837  10.410   7.434  11.924  0.2166  0.0340  0.3598
 1685DECAN   C816838  10.414   7.581  11.968  0.1006 -0.0312  0.5930
 1685DECAN   C916839  10.283   7.621  12.039 -0.3596  0.4397 -0.4816
 1685DECAN  C1016840  10.277   7.766  12.091 -0.3868  0.3471 -0.2252
 1686DECAN   C116841   2.157   8.144  11.114 -0.3583 -0.3405  0.5468
 1686DECAN   C216842   2.087   8.203  11.237 -0.3546 -0.0058  0.3888
 1686DECAN   C316843   2.178   8.265  11.344 -0.5478  0.7570  0.1147
 1686DECAN   C416844   2.103   8.313  11.469 -0.5063 -0.1286  0.4844
 1686DECAN   C516845   1.995   8.421  11.448  0.0100  0.2750 -0.1587
 1686DECAN   C616846   1.958   8.490  11.581 -0.6698 -0.3736 -0.0026
 1686DECAN   C716847   1.858   8.607  11.579  0.0464  0.2373 -0.3120
 1686DECAN   C816848   1.869   8.694  11.705 -0.0788 -0.0999 -0.0674
 1686DECAN   C916849   1.758   8.796  11.733  0.0152 -0.1175  0.3850
 1686DECAN  C1016850   1.622   8.738  11.778 -0.1627  0.5822  0.7626
 1687DECAN   C116851   6.498   1.044   9.003 -0.0314 -0.1976 -0.4082
 1687DECAN   C216852   6.413   1.169   8.975  0.4213  0.1618 -0.1848
 1687DECAN   C316853   6.499   1.267   8.893  0.4016 -0.2761 -0.7305
 1687DECAN   C416854   6.427   1.386   8.826 -0.2118 -0.3178 -0.1648
 1687DECAN   C516855   6.517   1.495   8.764 -0.3715  0.0600  0.2628
 1687DECAN   C616856   6.442   1.628   8.746 -0.3070  0.1221  0.4562
 1687DECAN   C716857   6.521   1.736   8.670 -0.4914  0.1674  0.3271
 1687DECAN   C816858   6.444   1.859   8.618 -0.4842 -0.3407 -0.9160
 1687DECAN   C916859   6.536   1.953   8.537 -0.2259  0.0893 -0.1416
 1687DECAN  C1016860   6.665   1.978   8.617 -0.1576 -0.4805 -0.0647
 1688DECAN   C116861   9.605  10.875  10.265 -0.3322  0.0415  0.2180
 1688DECAN   C216862   9.674  10.847  10.131 -0.0413  0.4673  0.2755
 1688DECAN   C316863   9.603  10.741  10.044  0.1562  0.1210  0.5327
 1688DECAN   C416864   9.660  10.700   9.907 -0.4354  0.5143  0.1654
 1688DECAN   C516865   9.576  10.593   9.833 -0.1932  0.0969  0.4913
 1688DECAN   C616866   9.631  10.560   9.693 -0.0064  0.0652  0.5712
 1688DECAN   C716867   9.623  10.666   9.582 -0.1412 -0.3268  0.2034
 1688DECAN   C816868   9.683  10.621   9.447  0.3765  0.1943  0.2563
 1688DECAN   C916869   9.668  10.704   9.319  0.6261  0.0827  0.1550
 1688DECAN  C1016870   9.705  10.626   9.191 -0.2371 -0.1544  0.0448
 1689DECAN   C116871   7.583   2.443   6.248  0.0418  0.2068 -0.1839
 1689DECAN   C216872   7.454   2.390   6.314 -0.0333  0.7434  0.1053
 1689DECAN   C316873   7.450   2.427   6.464  0.3515 -0.0984  0.3277
 1689DECAN   C416874   7.333   2.344   6.519 -0.0437 -0.1864 -0.6277
 1689DECAN   C516875   7.352   2.191   6.513 -0.3371 -0.2529  0.0751
 1689DECAN   C616876   7.234   2.119   6.580 -0.1677  0.5125  1.2302
 1689DECAN   C716877   7.096   2.146   6.517  0.4402  0.2095 -0.2745
 1689DECAN   C816878   6.978   2.098   6.604  0.2800  0.3960 -0.3902
 1689DECAN   C916879   6.839   2.135   6.547  0.2950  0.3721 -0.4426
 1689DECAN  C1016880   6.709   2.106   6.625 -0.1840  0.3120 -1.2542
 1690DECAN   C116881   8.481   7.742   6.549 -0.1993  0.1232 -0.0691
 1690DECAN   C216882   8.567   7.869   6.544 -0.4954  0.3383  0.2592
 1690DECAN   C316883   8.541   7.944   6.412 -0.7041  0.0133  0.1155
 1690DECAN   C416884   8.561   7.856   6.287 -0.1390  0.2284  0.0523
 1690DECAN   C516885   8.534   7.925   6.152  0.3748  0.1797 -0.0790
 1690DECAN   C616886   8.586   7.843   6.032  0.3978  0.2349 -0.1059
 1690DECAN   C716887   8.554   7.914   5.899  0.3032  0.4012  0.0044
 1690DECAN   C816888   8.596   7.862   5.760 -0.1126  0.5165 -0.1663
 1690DECAN   C916889   8.539   7.940   5.641 -0.6699  0.0929 -0.1814
 1690DECAN  C1016890   8.544   7.849   5.517  0.9212 -0.6075  0.3760
 1691DECAN   C116891   9.781   2.632   8.699 -0.1047  0.6129 -0.2991
 1691DECAN   C216892   9.760   2.538   8.819 -0.0292  0.3766 -0.4697
 1691DECAN   C316893   9.644   2.585   8.909  0.1473 -0.0937  0.0151
 1691DECAN   C416894   9.507   2.563   8.842 -0.0602 -0.0663  0.4308
 1691DECAN   C516895   9.379   2.591   8.924 -0.1836 -0.3096  0.3219
 1691DECAN   C616896   9.247   2.579   8.845  0.0852 -0.8814 -0.0488
 1691DECAN   C716897   9.126   2.630   8.926  0.8899  0.0770  0.5699
 1691DECAN   C816898   9.083   2.560   9.055 -0.5787 -0.0199  0.0418
 1691DECAN   C916899   9.082   2.408   9.030 -0.0791 -0.0334  0.0944
 1691DECAN  C1016900   9.042   2.322   9.152  0.1608 -0.3403 -0.0436
 1692DECAN   C116901   4.298   1.476   6.061  0.0286  0.1167  0.4025
 1692DECAN   C216902   4.211   1.508   5.938 -0.2291 -0.1587  0.5125
 1692DECAN   C316903   4.217   1.433   5.804 -0.4032  0.4369  0.1681
 1692DECAN   C416904   4.126   1.495   5.697 -0.3531  0.1541 -0.0399
 1692DECAN   C516905   4.094   1.395   5.584 -0.6836 -0.6236  0.7288
 1692DECAN   C616906   3.972   1.439   5.501  0.0944  0.5255  0.1694
 1692DECAN   C716907   3.837   1.404   5.566  0.0326  0.0539 -0.2016
 1692DECAN   C816908   3.712   1.473   5.507  0.1602  0.3891 -0.0862
 1692DECAN   C916909   3.682   1.617   5.550  0.1135  0.1987  0.5355
 1692DECAN  C1016910   3.545   1.664   5.497  0.4262  0.0879 -0.3813
 1693DECAN   C116911   3.896   3.846   8.357 -0.3246 -0.3932  0.4857
 1693DECAN   C216912   3.870   3.994   8.395  0.2401  0.0234 -0.7267
 1693DECAN   C316913   3.972   4.093   8.335  0.0429  0.6185 -0.0798
 1693DECAN   C416914   3.958   4.118   8.184  0.1497 -0.2293 -0.2346
 1693DECAN   C516915   3.854   4.209   8.114  0.1314 -0.1397 -0.0916
 1693DECAN   C616916   3.845   4.209   7.960 -0.1502  0.0978 -0.0739
 1693DECAN   C716917   3.703   4.248   7.916 -0.1402  0.3866  0.1400
 1693DECAN   C816918   3.692   4.300   7.771  0.2263  0.1602  0.0284
 1693DECAN   C916919   3.779   4.233   7.663 -0.1985 -0.1127 -0.1478
 1693DECAN  C1016920   3.790   4.316   7.533 -0.4919 -0.0475 -0.1321
 1694DECAN   C116921   3.485   7.338  13.435  0.4849 -0.4368  0.2441
 1694DECAN   C216922   3.624   7.389  13.478  0.4638  0.2973 -0.5567
 1694DECAN   C316923   3.650   7.403  13.629  0.4170 -0.8155 -0.4372
 1694DECAN   C416924   3.798   7.436  13.657  0.1322  0.1217 -0.0053
 1694DECAN   C516925   3.828   7.413  13.806 -0.0838  0.2195  0.0538
 1694DECAN   C616926   3.730   7.491  13.896 -0.0862  0.4704 -0.1653
 1694DECAN   C716927   3.582   7.454  13.875 -0.0033 -0.1046  0.2331
 1694DECAN   C816928   3.487   7.539  13.961  0.2664  0.1599  0.2689
 1694DECAN   C916929   3.512   7.551  14.113 -0.1971 -0.6262  0.4119
 1694DECAN  C1016930   3.440   7.667  14.185  0.2142  0.3242 -0.6707
 1695DECAN   C116931   7.382  10.716   8.763  0.2466  0.5301 -0.1706
 1695DECAN   C216932   7.500  10.638   8.703 -0.1490  0.0365 -0.3115
 1695DECAN   C316933   7.498  10.597   8.554 -0.2723  0.2071 -0.3575
 1695DECAN   C416934   7.357  10.560   8.504 -0.5981  0.5145  0.3197
 1695DECAN   C516935   7.281  10.446   8.574  0.1810 -0.2546 -0.0694
 1695DECAN   C616936   7.191  10.384   8.465  0.3540 -0.1898 -0.2515
 1695DECAN   C716937   7.081  10.289   8.517 -0.2332  0.4397 -0.3279
 1695DECAN   C816938   6.956  10.359   8.571 -0.3472 -0.3303  0.4306
 1695DECAN   C916939   6.843  10.265   8.616 -0.3390 -0.5552 -0.0164
 1695DECAN  C1016940   6.702  10.327   8.616 -0.2849 -0.4243  0.4858
 1696DECAN   C116941   2.588   1.432   7.430  0.2270 -0.1511 -0.2523
 1696DECAN   C216942   2.652   1.572   7.440  0.0840 -0.0577 -0.6542
 1696DECAN   C316943   2.734   1.620   7.318  0.2667 -0.2903 -0.6213
 1696DECAN   C416944   2.789   1.763   7.325  0.2422 -0.3190  0.2805
 1696DECAN   C516945   2.936   1.750   7.280  0.2445  0.6313 -0.0240
 1696DECAN   C616946   2.943   1.704   7.133 -0.0298  0.0726  0.1323
 1696DECAN   C716947   3.086   1.671   7.086  0.1949  0.1083  0.7695
 1696DECAN   C816948   3.185   1.782   7.046  0.3006 -0.3225 -0.2137
 1696DECAN   C916949   3.333   1.744   7.030  0.3204 -0.1759 -0.3740
 1696DECAN  C1016950   3.428   1.850   6.972 -0.3333  0.3530 -0.4947
 1697DECAN   C116951  10.087   5.215   7.264  0.4061 -0.3314 -0.3774
 1697DECAN   C216952  10.008   5.231   7.133  0.1072 -0.2254 -0.1848
 1697DECAN   C316953   9.977   5.378   7.100 -0.3476 -0.2548  0.1128
 1697DECAN   C416954   9.886   5.452   7.201 -0.3945 -0.0754 -0.0600
 1697DECAN   C516955   9.956   5.465   7.337 -0.2423 -0.1076 -0.1348
 1697DECAN   C616956   9.851   5.527   7.431 -0.4553 -0.0321 -0.4224
 1697DECAN   C716957   9.916   5.599   7.551 -0.3877 -0.5352 -0.1563
 1697DECAN   C816958   9.821   5.671   7.648 -0.0478 -0.0475 -0.1830
 1697DECAN   C916959   9.879   5.687   7.790 -0.1318  0.2319 -0.1792
 1697DECAN  C1016960   9.790   5.756   7.896  0.4808 -0.1467  0.5908
 1698DECAN   C116961   7.739   6.292   8.752 -0.0166  0.2039  0.0373
 1698DECAN   C216962   7.866   6.211   8.723 -0.2282  0.2627 -1.1159
 1698DECAN   C316963   7.992   6.291   8.686  0.1881  0.0707 -0.1298
 1698DECAN   C416964   8.108   6.215   8.620 -0.1585 -0.1550 -0.4855
 1698DECAN   C516965   8.162   6.090   8.692  0.4777  0.3095 -0.1366
 1698DECAN   C616966   8.250   5.997   8.606 -0.0598 -0.3273 -0.0048
 1698DECAN   C716967   8.279   5.864   8.679 -0.4158 -0.6864 -0.5153
 1698DECAN   C816968   8.380   5.767   8.615  0.3275 -0.0923 -0.2485
 1698DECAN   C916969   8.385   5.635   8.694 -0.0627  0.0094 -0.0535
 1698DECAN  C1016970   8.502   5.545   8.650 -0.3542 -0.5800  0.3656
 1699DECAN   C116971   6.865   0.510   8.563  0.0946 -0.0955  0.0178
 1699DECAN   C216972   6.905   0.364   8.593  0.0618  0.0152  0.6251
 1699DECAN   C316973   6.925   0.270   8.472 -0.7110  0.0098  0.4961
 1699DECAN   C416974   6.962   0.129   8.520 -0.0448 -0.0874 -0.2811
 1699DECAN   C516975   6.854   0.074   8.615  0.3980 -0.2841  0.1151
 1699DECAN   C616976   6.858   0.143   8.753  0.3464 -0.3401  0.1437
 1699DECAN   C716977   6.982   0.100   8.835  0.5669 -0.6666 -0.3563
 1699DECAN   C816978   6.991   0.165   8.974 -0.1453  0.1106 -0.6650
 1699DECAN   C916979   7.133   0.194   9.026 -0.5774  0.7486  0.1827
 1699DECAN  C1016980   7.118   0.226   9.175  0.3519 -0.4009  0.5361
 1700DECAN   C116981   9.181   9.292  14.587  0.6725 -0.0608 -0.0745
 1700DECAN   C216982   9.220   9.173  14.677  0.1544 -0.3081 -0.1773
 1700DECAN   C316983   9.262   9.051  14.594  0.5713 -0.0800 -0.3034
 1700DECAN   C416984   9.145   8.994  14.511 -0.3325  0.4701  0.5779
 1700DECAN   C516985   9.166   8.855  14.448 -0.1648  0.5789  0.3952
 1700DECAN   C616986   9.201   8.756  14.561  0.3867  0.1133 -0.1747
 1700DECAN   C716987   9.192   8.607  14.525 -0.3185  0.0453  0.2560
 1700DECAN   C816988   9.166   8.524  14.652  0.0199  0.3797  0.5482
 1700DECAN   C916989   9.174   8.371  14.638  0.6031  0.4478  0.1253
 1700DECAN  C1016990   9.306   8.297  14.671  0.5263  0.0530 -0.4465
 1701DECAN   C116991   9.346   6.499  14.048  0.0477  0.2334  0.6595
 1701DECAN   C216992   9.217   6.417  14.037  0.1217  0.2538 -0.4513
 1701DECAN   C316993   9.231   6.280  13.969 -0.1319  0.0755 -0.1503
 1701DECAN   C416994   9.223   6.302  13.817  0.2838  0.1927 -0.1560
 1701DECAN   C516995   9.094   6.363  13.758  0.0214 -0.3024 -0.1010
 1701DECAN   C616996   9.112   6.429  13.620 -0.4724 -0.2214 -0.1279
 1701DECAN   C716997   9.135   6.326  13.508  0.2049 -0.1823 -0.0313
 1701DECAN   C816998   9.150   6.388  13.368 -0.2338  0.3184  0.1398
 1701DECAN   C916999   9.293   6.438  13.344 -0.3249  0.4287 -0.1843
 1701DECAN  C1017000   9.328   6.574  13.408  1.2194  0.1793 -0.4634
 1702DECAN   C117001   8.503   9.917   9.739  0.1805  0.0986 -0.0744
 1702DECAN   C217002   8.399   9.903   9.851  0.1020  0.0045 -0.1595
 1702DECAN   C317003   8.309   9.778   9.860  0.3831 -0.1934 -0.0582
 1702DECAN   C417004   8.235   9.735   9.732  0.0492  0.1943  0.0037
 1702DECAN   C517005   8.155   9.606   9.760  0.2752  0.0924  0.1822
 1702DECAN   C617006   8.122   9.513   9.642  0.2063 -0.0947  0.3489
 1702DECAN   C717007   8.241   9.425   9.599  0.1264 -0.1014  0.1408
 1702DECAN   C817008   8.360   9.501   9.536 -0.0625 -0.1193 -0.2383
 1702DECAN   C917009   8.483   9.409   9.536 -0.0771 -0.1421  0.0020
 1702DECAN  C1017010   8.525   9.389   9.682 -0.5906  0.1801  0.1952
 1703DECAN   C117011   2.642   7.502   6.274  0.0734  0.3704  1.0316
 1703DECAN   C217012   2.662   7.650   6.233 -1.2692  0.2516 -0.1080
 1703DECAN   C317013   2.712   7.666   6.088 -0.0393  0.2467  0.3030
 1703DECAN   C417014   2.833   7.761   6.089  0.0650  0.1261 -0.5337
 1703DECAN   C517015   2.821   7.890   6.173  0.5376 -0.1541 -0.0279
 1703DECAN   C617016   2.809   7.874   6.325 -0.0680 -0.0113 -0.0580
 1703DECAN   C717017   2.776   8.008   6.392 -0.1065 -0.0048 -0.0904
 1703DECAN   C817018   2.753   8.005   6.544 -0.1740  0.2460 -0.0943
 1703DECAN   C917019   2.708   8.145   6.590 -0.0522  0.2859 -0.0952
 1703DECAN  C1017020   2.793   8.270   6.563 -0.1300  0.2758 -0.3900
 1704DECAN   C117021   2.311   4.696   4.768  0.4452 -0.5210  0.1883
 1704DECAN   C217022   2.366   4.829   4.711 -0.4214 -0.1317  0.2500
 1704DECAN   C317023   2.501   4.817   4.639 -0.3053  0.3535  0.3821
 1704DECAN   C417024   2.555   4.955   4.598 -0.0857 -0.0113 -0.5967
 1704DECAN   C517025   2.666   4.954   4.491  0.4992  0.2130 -0.0008
 1704DECAN   C617026   2.792   4.885   4.548  0.0716 -0.1113  0.5614
 1704DECAN   C717027   2.911   4.853   4.456  0.1017 -0.0499  0.5790
 1704DECAN   C817028   2.980   4.979   4.401 -0.2061 -0.1245  0.0084
 1704DECAN   C917029   3.112   4.970   4.322 -0.0302  0.1274  0.2710
 1704DECAN  C1017030   3.173   5.106   4.285 -1.0895  0.5265 -0.0254
 1705DECAN   C117031   4.834   1.119   8.057 -0.2209 -0.1110  0.1285
 1705DECAN   C217032   4.763   1.188   7.939 -0.8156  0.7934  0.9946
 1705DECAN   C317033   4.830   1.323   7.908  0.4224 -0.0469 -0.1070
 1705DECAN   C417034   4.761   1.401   7.794  0.2676 -0.4537 -0.2949
 1705DECAN   C517035   4.610   1.368   7.787  0.2877 -0.6613  0.1663
 1705DECAN   C617036   4.585   1.217   7.775 -0.4387 -0.5277  0.0099
 1705DECAN   C717037   4.436   1.185   7.749 -0.5387 -0.1204  0.0666
 1705DECAN   C817038   4.346   1.212   7.871  0.0592 -0.1058  0.5130
 1705DECAN   C917039   4.336   1.360   7.915 -0.0801 -0.1487  0.6260
 1705DECAN  C1017040   4.266   1.374   8.051 -0.3572 -0.2227  0.4920
 1706DECAN   C117041   5.193   2.556   9.761 -0.7827 -0.4757  0.0937
 1706DECAN   C217042   5.042   2.584   9.753 -0.6417  0.2075 -0.1828
 1706DECAN   C317043   4.995   2.583   9.900  0.3862  0.5390  0.1565
 1706DECAN   C417044   5.016   2.462   9.993 -0.3168  0.0966 -0.2548
 1706DECAN   C517045   4.931   2.450  10.121  0.0677 -0.3023 -0.0379
 1706DECAN   C617046   4.778   2.451  10.106  0.0282  0.1391  0.3560
 1706DECAN   C717047   4.699   2.466  10.237 -0.2666  0.0867  0.1875
 1706DECAN   C817048   4.549   2.479  10.208 -0.1868  0.2611 -0.1521
 1706DECAN   C917049   4.469   2.507  10.337  0.1035  0.1724  0.0480
 1706DECAN  C1017050   4.319   2.471  10.339  0.2120 -0.2801  0.2061
 1707DECAN   C117051   5.530   7.379   4.140  0.2228  0.4078  0.1342
 1707DECAN   C217052   5.600   7.345   4.007 -0.0311 -0.3672  0.1948
 1707DECAN   C317053   5.594   7.194   3.979  0.3062 -0.3066 -0.2105
 1707DECAN   C417054   5.709   7.135   3.895  0.5944 -0.2072  0.1139
 1707DECAN   C517055   5.681   6.996   3.835 -0.4077  0.1254 -0.2058
 1707DECAN   C617056   5.712   6.874   3.923 -0.0399 -0.1215 -0.6741
 1707DECAN   C717057   5.649   6.740   3.881  0.4375 -0.3274 -0.7443
 1707DECAN   C817058   5.700   6.611   3.947  0.0611 -0.1424 -0.0862
 1707DECAN   C917059   5.850   6.584   3.922  0.0730 -0.0527 -0.1094
 1707DECAN  C1017060   5.945   6.684   3.990  0.1385  0.0079 -0.2899
 1708DECAN   C117061   2.851   6.128  11.862 -0.0985 -0.5587  0.0610
 1708DECAN   C217062   2.927   5.994  11.857 -0.1684 -0.5868 -0.2230
 1708DECAN   C317063   3.077   6.021  11.875 -0.2371 -0.2621 -0.1142
 1708DECAN   C417064   3.166   5.895  11.868  0.1679 -0.0130  0.4480
 1708DECAN   C517065   3.157   5.813  11.738  0.1403 -0.2494  0.5992
 1708DECAN   C617066   3.254   5.694  11.724 -0.1918 -0.4715  0.1196
 1708DECAN   C717067   3.221   5.592  11.614  0.2119  0.4222 -0.8436
 1708DECAN   C817068   3.109   5.491  11.645  0.5962  0.1910 -0.2016
 1708DECAN   C917069   3.092   5.379  11.541  0.3347 -0.2309  0.2888
 1708DECAN  C1017070   2.976   5.281  11.568 -0.6445  0.8740  0.1998
 1709DECAN   C117071   2.745   9.947   8.032  0.0019 -0.4430 -0.6002
 1709DECAN   C217072   2.811   9.810   8.057 -0.0336 -0.4291 -0.4304
 1709DECAN   C317073   2.783   9.736   8.189  0.4133  0.5301  0.2099
 1709DECAN   C417074   2.858   9.606   8.220  0.7483  0.7667  0.4045
 1709DECAN   C517075   2.797   9.525   8.336  0.0742  0.3373 -0.2352
 1709DECAN   C617076   2.834   9.376   8.342 -0.2434  0.2717  0.1788
 1709DECAN   C717077   2.800   9.294   8.467  0.1560 -0.0060  0.1093
 1709DECAN   C817078   2.870   9.334   8.598 -0.3115  0.3609  0.2530
 1709DECAN   C917079   2.811   9.274   8.727 -0.3267 -0.4295 -0.1089
 1709DECAN  C1017080   2.816   9.121   8.732 -1.0979 -0.4519  0.0950
 1710DECAN   C117081   1.372  10.061  14.297 -0.0323  0.3597  0.2547
 1710DECAN   C217082   1.350  10.004  14.438  0.4034 -0.9934 -0.2052
 1710DECAN   C317083   1.476  10.024  14.525 -0.2240  0.3665  0.4276
 1710DECAN   C417084   1.520  10.169  14.547  0.0390  0.3461  0.0320
 1710DECAN   C517085   1.622  10.174  14.663 -0.2250 -0.3942  0.2976
 1710DECAN   C617086   1.649  10.316  14.715 -0.0621 -0.1163 -0.5308
 1710DECAN   C717087   1.777  10.332  14.800 -0.4693  0.2087  0.0269
 1710DECAN   C817088   1.787  10.473  14.860 -0.0066  0.0829  0.2476
 1710DECAN   C917089   1.928  10.514  14.906  0.2213 -0.0050 -0.3644
 1710DECAN  C1017090   1.988  10.400  14.991 -0.2083 -0.0320 -0.0983
 1711DECAN   C117091   2.848   1.716  13.630  0.4586 -0.4073  0.0356
 1711DECAN   C217092   2.737   1.611  13.643  0.1966 -0.1556 -0.1634
 1711DECAN   C317093   2.736   1.532  13.776 -0.3589  0.5436  0.2528
 1711DECAN   C417094   2.622   1.428  13.782  0.1178 -0.0277 -0.4728
 1711DECAN   C517095   2.627   1.363  13.921  0.1015 -0.2415 -0.5721
 1711DECAN   C617096   2.571   1.222  13.946 -0.0515 -0.0911 -0.0500
 1711DECAN   C717097   2.417   1.212  13.958 -0.0538  0.0498  0.0378
 1711DECAN   C817098   2.356   1.074  13.931  0.6940 -0.2527 -0.1459
 1711DECAN   C917099   2.352   1.044  13.780  0.4115  0.2690 -0.2434
 1711DECAN  C1017100   2.306   0.901  13.749 -0.2229  0.6052 -0.8969
 1712DECAN   C117101   9.431   0.553   4.302 -0.2154 -0.2714  0.4381
 1712DECAN   C217102   9.362   0.683   4.256  0.3657 -0.2342 -0.3421
 1712DECAN   C317103   9.380   0.807   4.345 -0.7939 -0.0867 -0.3052
 1712DECAN   C417104   9.289   0.922   4.297 -1.0036 -0.1018  0.0513
 1712DECAN   C517105   9.335   1.046   4.376  0.0733 -0.3806 -0.1239
 1712DECAN   C617106   9.252   1.173   4.349  0.3336 -0.1469  0.1609
 1712DECAN   C717107   9.323   1.297   4.407  0.2888 -0.0429 -0.0054
 1712DECAN   C817108   9.241   1.426   4.400 -0.3117 -0.4177  0.0804
 1712DECAN   C917109   9.237   1.492   4.539  0.6673 -0.3133  0.0609
 1712DECAN  C1017110   9.167   1.628   4.555 -0.4084 -0.8406 -0.1004
 1713DECAN   C117111   9.121   0.352   6.151 -0.3360  0.1545  0.3784
 1713DECAN   C217112   9.054   0.223   6.203 -0.1442 -0.1231 -0.0544
 1713DECAN   C317113   9.022   0.228   6.354  0.4417 -0.6486  0.0953
 1713DECAN   C417114   8.945   0.104   6.402 -0.6478 -0.1404 -0.2961
 1713DECAN   C517115   8.921   0.121   6.553  0.2604  0.3516 -0.1976
 1713DECAN   C617116   9.043   0.150   6.642  0.1207  0.5362 -0.0627
 1713DECAN   C717117   8.994   0.131   6.787  0.6754 -0.0989  0.0486
 1713DECAN   C817118   9.107   0.114   6.890  0.7485 -0.5066 -0.0971
 1713DECAN   C917119   9.046   0.112   7.031 -0.1469  0.1772 -0.4661
 1713DECAN  C1017120   8.952  11.240   7.068 -0.0308  0.2925  0.2016
 1714DECAN   C117121   2.020   9.467   7.058  0.1536  0.3691 -0.0946
 1714DECAN   C217122   1.904   9.548   7.118  0.1391 -0.5751  1.1966
 1714DECAN   C317123   1.786   9.466   7.173 -0.3294 -0.4456  0.3954
 1714DECAN   C417124   1.673   9.530   7.256 -0.1442 -0.0161  0.3224
 1714DECAN   C517125   1.604   9.421   7.341  0.1264 -0.6483 -0.2652
 1714DECAN   C617126   1.485   9.469   7.426 -0.0890 -0.7852 -0.4884
 1714DECAN   C717127   1.419   9.363   7.516  0.1547 -0.1904  0.3976
 1714DECAN   C817128   1.323   9.416   7.625  0.0487 -0.2337  0.3259
 1714DECAN   C917129   1.264   9.313   7.722  0.0856 -0.6460 -0.0872
 1714DECAN  C1017130   1.189   9.367   7.845  0.4043  0.2820 -0.2903
 1715DECAN   C117131   6.065   4.917  13.848 -0.1961 -0.4538  0.5182
 1715DECAN   C217132   6.047   5.068  13.823  0.2422 -0.4070  0.4842
 1715DECAN   C317133   6.152   5.159  13.890  0.3962  0.3077 -0.6872
 1715DECAN   C417134   6.127   5.310  13.876 -0.9372  0.1565 -0.1445
 1715DECAN   C517135   6.016   5.370  13.964 -0.4813  0.7504  0.0365
 1715DECAN   C617136   6.040   5.364  14.116 -0.4501 -0.1816  0.0014
 1715DECAN   C717137   6.051   5.221  14.169  0.1306  0.0170  0.4263
 1715DECAN   C817138   6.061   5.212  14.323  0.1417 -1.0737  0.3726
 1715DECAN   C917139   5.928   5.238  14.396  0.4218  0.5194  0.3568
 1715DECAN  C1017140   5.907   5.191  14.541 -0.0230  0.4066  0.2574
 1716DECAN   C117141   9.033   8.680  15.095  0.5634 -0.6371 -0.1947
 1716DECAN   C217142   9.175   8.688  15.037  0.3621 -0.2001 -0.6313
 1716DECAN   C317143   9.266   8.804  15.083  0.1190  0.1345 -0.9882
 1716DECAN   C417144   9.213   8.947  15.056 -0.4072  0.2233  0.4153
 1716DECAN   C517145   9.299   9.058  15.119 -0.1603  0.4311 -0.2777
 1716DECAN   C617146   9.447   9.062  15.078 -0.2372 -0.5309 -0.6753
 1716DECAN   C717147   9.477   9.073  14.927 -0.2178 -0.2418 -0.6510
 1716DECAN   C817148   9.628   9.079  14.898 -0.1584  0.5192 -0.1830
 1716DECAN   C917149   9.696   9.119  14.766  0.0416 -0.2232 -0.3096
 1716DECAN  C1017150   9.839   9.066  14.743  0.1628 -0.0728  0.0969
 1717DECAN   C117151   1.057  11.037  11.797  0.5140 -0.3421 -0.3017
 1717DECAN   C217152   1.070  10.906  11.718 -0.0635 -0.5168 -0.1092
 1717DECAN   C317153   1.199  10.907  11.635 -0.5262  0.5019 -0.8406
 1717DECAN   C417154   1.229  10.781  11.551  0.4604  0.5158 -0.5280
 1717DECAN   C517155   1.377  10.741  11.544  0.2833 -0.1745 -0.4600
 1717DECAN   C617156   1.427  10.706  11.685 -0.3446 -0.1815 -0.2376
 1717DECAN   C717157   1.376  10.568  11.730 -0.6399 -0.0787 -0.2574
 1717DECAN   C817158   1.389  10.543  11.881  0.0590  0.5015 -0.2168
 1717DECAN   C917159   1.320  10.650  11.968 -0.0681  0.0444  0.2468
 1717DECAN  C1017160   1.324  10.633  12.121 -0.1569 -0.1617  0.2267
 1718DECAN   C117161   5.481   2.495   7.421  0.0079  0.1076 -0.0977
 1718DECAN   C217162   5.452   2.451   7.277 -0.5673 -0.3371  0.1511
 1718DECAN   C317163   5.443   2.562   7.171  0.0321 -0.6547 -0.2353
 1718DECAN   C417164   5.431   2.506   7.028 -0.0331 -0.5755 -0.2605
 1718DECAN   C517165   5.407   2.612   6.919  0.5055 -0.1379  0.0423
 1718DECAN   C617166   5.521   2.715   6.905  0.0174  0.3996 -0.0513
 1718DECAN   C717167   5.525   2.798   6.776 -0.0580  0.0425 -0.2836
 1718DECAN   C817168   5.385   2.853   6.743 -0.0539  0.3985  0.2866
 1718DECAN   C917169   5.405   2.944   6.620  0.4661 -0.2295 -0.1036
 1718DECAN  C1017170   5.282   2.997   6.544 -0.4797 -1.0919  0.7908
 1719DECAN   C117171   8.619   8.222  13.265 -0.2029  0.0042  0.3347
 1719DECAN   C217172   8.655   8.153  13.133  0.2010  0.4356  0.2136
 1719DECAN   C317173   8.549   8.181  13.025  0.5535 -0.6881 -0.4481
 1719DECAN   C417174   8.588   8.159  12.877  0.3264  0.4183 -0.6867
 1719DECAN   C517175   8.467   8.134  12.785  0.1420 -0.3692 -0.2441
 1719DECAN   C617176   8.372   8.020  12.827 -1.1244  0.5987 -0.4129
 1719DECAN   C717177   8.285   7.956  12.717 -0.5901 -0.5092 -0.2042
 1719DECAN   C817178   8.183   8.054  12.656 -0.5287 -0.0932  0.3484
 1719DECAN   C917179   8.073   7.977  12.581 -0.2017 -0.2009 -0.0241
 1719DECAN  C1017180   7.963   8.072  12.529  0.2560  0.3086 -0.0708
 1720DECAN   C117181   4.162  10.102   5.938 -0.0361 -0.1241  0.3864
 1720DECAN   C217182   4.188  10.183   6.066  0.1203  0.0445  0.2491
 1720DECAN   C317183   4.242  10.324   6.037  0.0016  0.0192 -0.0979
 1720DECAN   C417184   4.282  10.395   6.168  0.2833  0.0405 -0.1950
 1720DECAN   C517185   4.339  10.536   6.143  0.2335  0.1038  0.0490
 1720DECAN   C617186   4.383  10.615   6.268  0.7051  0.2694 -0.2207
 1720DECAN   C717187   4.500  10.548   6.342  0.3980  0.3300  0.3265
 1720DECAN   C817188   4.545  10.617   6.472 -0.3689  0.3409  0.5894
 1720DECAN   C917189   4.647  10.541   6.558 -0.1035 -0.0974 -0.1018
 1720DECAN  C1017190   4.698  10.619   6.681 -0.5524  0.4063 -0.2285
 1721DECAN   C117191   3.704   3.456  12.366  0.5489 -0.2606  0.2529
 1721DECAN   C217192   3.682   3.424  12.515 -0.1836  0.0930  0.2247
 1721DECAN   C317193   3.545   3.475  12.564 -0.0234  0.3569  0.4011
 1721DECAN   C417194   3.497   3.417  12.699 -0.0094 -0.3130  0.1236
 1721DECAN   C517195   3.359   3.467  12.745  0.0973 -0.0160  0.1283
 1721DECAN   C617196   3.354   3.621  12.742  0.1357 -0.0050  0.5835
 1721DECAN   C717197   3.397   3.678  12.606 -0.2078 -0.1373  0.4203
 1721DECAN   C817198   3.408   3.832  12.611 -0.7592 -0.0552 -0.5659
 1721DECAN   C917199   3.435   3.883  12.468 -0.0891  0.4345 -0.2721
 1721DECAN  C1017200   3.568   3.825  12.418 -0.3547 -0.1991 -0.2601
 1722DECAN   C117201   7.245   1.590  12.906 -0.2294  0.0255  0.4147
 1722DECAN   C217202   7.145   1.481  12.864  0.0829  0.0459 -0.4002
 1722DECAN   C317203   7.196   1.338  12.887  0.1126  0.0478 -0.4539
 1722DECAN   C417204   7.106   1.228  12.827  0.5006 -0.2680 -0.4617
 1722DECAN   C517205   7.151   1.083  12.857  0.2230 -0.3413 -0.3949
 1722DECAN   C617206   7.157   1.061  13.009 -0.8540 -0.0003 -0.2974
 1722DECAN   C717207   7.176   0.912  13.042 -0.2863  0.1353  0.0190
 1722DECAN   C817208   7.189   0.887  13.193  0.4399  0.0569 -0.0536
 1722DECAN   C917209   7.210   0.736  13.217  0.5366  0.0126 -0.4111
 1722DECAN  C1017210   7.213   0.713  13.369  0.0900  0.4559 -0.3330
 1723DECAN   C117211   2.414   2.123   8.609  0.1722 -0.0974 -0.5294
 1723DECAN   C217212   2.421   1.975   8.649  0.0348 -0.1266 -0.6146
 1723DECAN   C317213   2.517   1.955   8.768 -0.1770 -0.0652 -0.4309
 1723DECAN   C417214   2.561   1.817   8.819 -0.2505  0.1743  0.2856
 1723DECAN   C517215   2.457   1.734   8.896 -0.1385 -0.1358  0.1047
 1723DECAN   C617216   2.490   1.588   8.934 -0.3195 -0.1333  0.2744
 1723DECAN   C717217   2.510   1.492   8.815  0.0348  0.3918 -0.0966
 1723DECAN   C817218   2.377   1.427   8.772  0.0943  0.5180 -0.4722
 1723DECAN   C917219   2.369   1.399   8.621  0.4338 -0.4412 -0.3149
 1723DECAN  C1017220   2.362   1.517   8.522 -0.0818  0.3191  0.6127
 1724DECAN   C117221  10.502   9.991  12.131  0.4385 -0.0748  0.0957
 1724DECAN   C217222  10.525   9.849  12.186 -0.5511 -0.3617 -0.2166
 1724DECAN   C317223  10.560   9.743  12.079  0.0889  0.0394 -0.4074
 1724DECAN   C417224  10.447   9.734  11.975 -0.0253  0.2206 -0.2996
 1724DECAN   C517225  10.367   9.606  12.006 -0.0149  0.2763 -0.0377
 1724DECAN   C617226  10.236   9.605  11.925 -0.1733 -0.4866  0.2277
 1724DECAN   C717227  10.145   9.482  11.944 -0.6320 -0.1728  0.0801
 1724DECAN   C817228  10.111   9.446  12.090 -0.3125  0.1339  0.2331
 1724DECAN   C917229   9.995   9.345  12.073  0.1521 -0.3737  0.0480
 1724DECAN  C1017230   9.964   9.287  12.212 -0.0257 -0.0412  0.1486
 1725DECAN   C117231   8.212   8.048  11.445 -0.0478 -0.3223  0.3173
 1725DECAN   C217232   8.183   7.912  11.378 -0.2161 -0.3470  0.4375
 1725DECAN   C317233   8.308   7.823  11.388 -0.2363 -0.3836  0.3685
 1725DECAN   C417234   8.310   7.700  11.296  0.1153 -0.4059  0.4016
 1725DECAN   C517235   8.408   7.586  11.329 -0.2041 -0.5015  1.0291
 1725DECAN   C617236   8.359   7.456  11.262  0.1761 -0.0540 -0.1468
 1725DECAN   C717237   8.295   7.351  11.355  0.1414 -0.4624 -0.6293
 1725DECAN   C817238   8.381   7.299  11.472 -0.3716 -0.1256 -0.0935
 1725DECAN   C917239   8.319   7.199  11.571  0.0415 -0.3881 -0.0993
 1725DECAN  C1017240   8.410   7.157  11.688 -0.0861 -0.4946 -0.0381
 1726DECAN   C117241   4.729   8.345  14.541 -0.1929 -0.3437  0.0236
 1726DECAN   C217242   4.838   8.325  14.648  0.0921  0.0049 -0.2000
 1726DECAN   C317243   4.807   8.345  14.797  0.3830 -0.2797 -0.0993
 1726DECAN   C417244   4.905   8.275  14.893  1.0525  0.3866 -0.2797
 1726DECAN   C517245   4.873   8.308  15.041 -0.9171  0.0145 -0.5861
 1726DECAN   C617246   4.740   8.272  15.110 -0.3097 -0.4779  0.3418
 1726DECAN   C717247   4.615   8.328  15.041 -0.1222 -0.0983  0.3043
 1726DECAN   C817248   4.497   8.275  15.125 -0.0657 -0.2290  0.3007
 1726DECAN   C917249   4.362   8.312  15.060  0.0298 -0.5277 -0.0727
 1726DECAN  C1017250   4.260   8.272  15.167 -0.3757 -0.3207 -0.3793
 1727DECAN   C117251   2.609  10.903  12.650  0.1958  0.0616  0.2547
 1727DECAN   C217252   2.541  10.897  12.788  0.0373  0.3027  0.1873
 1727DECAN   C317253   2.389  10.897  12.812  0.0324 -0.0902  0.1608
 1727DECAN   C417254   2.329  10.901  12.954 -0.2486 -0.0434  0.0419
 1727DECAN   C517255   2.310  11.044  13.008  0.0193 -0.1233  0.3536
 1727DECAN   C617256   2.275  11.075  13.155 -0.4120  1.2957 -0.0268
 1727DECAN   C717257   2.400  11.069  13.244 -0.3018  0.2912 -0.2296
 1727DECAN   C817258   2.465  11.203  13.283  0.0202  0.0051  0.2283
 1727DECAN   C917259   2.610  11.184  13.330 -0.0061 -0.2367  0.2107
 1727DECAN  C1017260   2.686   0.072  13.354 -0.1477 -0.1064 -0.0525
 1728DECAN   C117261   7.910  10.908   8.944 -0.3778 -0.9693  0.0776
 1728DECAN   C217262   7.934  10.997   9.068 -0.3055 -0.1735 -0.5037
 1728DECAN   C317263   7.877  11.140   9.057 -0.4534 -0.1839  0.0869
 1728DECAN   C417264   7.909  11.223   9.182 -0.0784 -0.1136 -0.0517
 1728DECAN   C517265   7.816  11.194   9.302 -0.1450 -0.1200 -0.1060
 1728DECAN   C617266   7.769  11.047   9.299 -0.1240 -0.1256 -0.1535
 1728DECAN   C717267   7.669  11.016   9.412  0.2214  0.1981  0.2462
 1728DECAN   C817268   7.639  10.866   9.426 -0.0271  0.2440  0.2260
 1728DECAN   C917269   7.624  10.797   9.289 -0.6590  0.3218  0.2556
 1728DECAN  C1017270   7.571  10.652   9.290 -0.2570  0.1610 -0.6304
 1729DECAN   C117271   7.715   5.939  12.801 -0.0391 -0.0156 -0.0414
 1729DECAN   C217272   7.753   5.795  12.838  0.4007  0.0196 -0.3344
 1729DECAN   C317273   7.861   5.794  12.948 -0.0023 -0.0007  0.0635
 1729DECAN   C417274   7.872   5.655  13.014 -0.2481 -0.0032  0.1005
 1729DECAN   C517275   7.971   5.652  13.132  0.1073 -0.3172 -0.2073
 1729DECAN   C617276   7.982   5.514  13.200 -0.5848 -0.0270  0.4951
 1729DECAN   C717277   8.067   5.517  13.329  0.0781 -0.0963  0.0653
 1729DECAN   C817278   8.195   5.598  13.304  0.2513 -0.2764  0.3733
 1729DECAN   C917279   8.199   5.743  13.356 -0.1536 -0.0606 -0.2014
 1729DECAN  C1017280   8.334   5.813  13.335  0.0652 -0.3972  0.0751
 1730DECAN   C117281   5.875  11.138   7.505 -0.4088 -0.1532  0.3499
 1730DECAN   C217282   5.915   0.010   7.598 -0.1050  0.1972 -0.2104
 1730DECAN   C317283   5.883  11.233   7.747  0.1233 -0.0754 -0.1987
 1730DECAN   C417284   5.894   0.118   7.830  0.2703 -0.2514  0.0595
 1730DECAN   C517285   5.864   0.080   7.976 -0.0666 -0.0728  0.0373
 1730DECAN   C617286   5.983   0.002   8.035 -0.1608 -0.4270 -0.2395
 1730DECAN   C717287   6.115   0.075   8.065 -0.1995 -0.6354  0.4477
 1730DECAN   C817288   6.177   0.145   7.943 -0.1672 -0.8424  0.3452
 1730DECAN   C917289   6.313   0.208   7.980 -0.4764 -0.1196  0.2605
 1730DECAN  C1017290   6.422   0.114   8.032 -0.2207  0.0979  0.1211
 1731DECAN   C117291   7.228  10.335  12.538  0.3485  0.4347 -0.6857
 1731DECAN   C217292   7.305  10.438  12.622 -0.1154 -0.0689  0.3760
 1731DECAN   C317293   7.423  10.495  12.540  0.0497 -0.2096  0.5159
 1731DECAN   C417294   7.522  10.385  12.497 -0.0131  0.0677 -0.3499
 1731DECAN   C517295   7.461  10.266  12.420 -0.2413  0.1451 -0.2914
 1731DECAN   C617296   7.544  10.136  12.420 -0.1267  0.2191 -0.1058
 1731DECAN   C717297   7.493  10.034  12.318 -0.1493  0.0432  0.0802
 1731DECAN   C817298   7.567   9.900  12.335 -0.0551  0.0662 -0.1395
 1731DECAN   C917299   7.568   9.868  12.486 -0.4455  0.0242 -0.1463
 1731DECAN  C1017300   7.645   9.970  12.571 -0.5280  0.4235 -0.5477
 1732DECAN   C117301   5.887   4.282  12.202 -0.6116  1.2879  0.2303
 1732DECAN   C217302   5.976   4.293  12.328 -0.1830  0.1541  0.0396
 1732DECAN   C317303   5.961   4.435  12.385 -0.2986  0.0741  0.2087
 1732DECAN   C417304   6.057   4.464  12.502 -0.0624  0.3068 -0.0431
 1732DECAN   C517305   6.035   4.596  12.579 -0.3443  0.1715  0.1076
 1732DECAN   C617306   6.131   4.612  12.698 -0.2926 -0.0693  0.0993
 1732DECAN   C717307   6.111   4.750  12.763 -0.3346 -0.0662  0.0795
 1732DECAN   C817308   6.195   4.765  12.891  0.0404 -0.1123 -0.1585
 1732DECAN   C917309   6.203   4.906  12.952  0.5207 -0.3642  0.3728
 1732DECAN  C1017310   6.320   4.924  13.051  0.8449 -0.3484 -0.0102
 1733DECAN   C117311  10.733   9.342  10.470 -0.1653  0.1557  0.1938
 1733DECAN   C217312  10.832   9.225  10.458 -0.1571  0.2273 -0.4769
 1733DECAN   C317313  10.758   9.095  10.494  0.3960  0.0703  0.1107
 1733DECAN   C417314  10.854   8.976  10.513 -0.0665 -0.3099  0.0862
 1733DECAN   C517315  10.773   8.849  10.544 -0.5137 -0.2352 -0.7294
 1733DECAN   C617316  10.723   8.832  10.689  0.7009 -0.2431 -0.2998
 1733DECAN   C717317  10.642   8.702  10.701  0.1790  0.0704 -0.3948
 1733DECAN   C817318  10.572   8.676  10.835  0.3602  0.1309 -0.2893
 1733DECAN   C917319  10.487   8.548  10.831  0.5543 -0.0001 -0.2757
 1733DECAN  C1017320  10.388   8.519  10.946  0.3979 -0.3877 -0.5064
 1734DECAN   C117321   3.963   2.795  13.121  0.0796 -0.1909 -0.2371
 1734DECAN   C217322   3.924   2.648  13.097 -0.0510 -0.2418  0.2756
 1734DECAN   C317323   4.051   2.561  13.097 -0.1938 -0.4530 -0.5563
 1734DECAN   C417324   4.013   2.412  13.083  0.0713 -0.5341 -0.4216
 1734DECAN   C517325   3.913   2.375  13.194  0.2321  0.4405  0.0579
 1734DECAN   C617326   3.968   2.380  13.338  0.3272 -0.9438  0.0826
 1734DECAN   C717327   3.847   2.336  13.423 -0.3313 -0.4282 -0.5749
 1734DECAN   C817328   3.879   2.337  13.574 -0.1551 -0.2154 -0.6115
 1734DECAN   C917329   3.745   2.312  13.646 -0.0052 -0.0103 -0.2623
 1734DECAN  C1017330   3.741   2.261  13.791 -0.2433 -0.3613 -0.3911
 1735DECAN   C117331   7.048   1.750   4.400  0.1834  0.1314 -0.2317
 1735DECAN   C217332   6.912   1.677   4.400  0.1000  0.2885 -0.1302
 1735DECAN   C317333   6.914   1.528   4.437  0.5549  0.3080 -0.0753
 1735DECAN   C417334   6.990   1.483   4.564  0.4954  0.0905 -0.1146
 1735DECAN   C517335   6.985   1.330   4.562 -0.5043  0.1158 -0.1883
 1735DECAN   C617336   6.850   1.258   4.575 -0.3504 -0.1466 -0.0114
 1735DECAN   C717337   6.866   1.106   4.590 -0.0602 -0.0606  0.5462
 1735DECAN   C817338   6.731   1.033   4.586 -0.1167  0.0986 -0.5514
 1735DECAN   C917339   6.760   0.883   4.603  0.2673  0.2626  0.2562
 1735DECAN  C1017340   6.646   0.783   4.580  0.2096  0.2946  0.4043
 1736DECAN   C117341   6.135   7.125   8.392 -0.1499 -0.2444 -0.2300
 1736DECAN   C217342   6.124   7.267   8.451 -0.1040 -0.3340 -0.0068
 1736DECAN   C317343   6.062   7.286   8.591 -0.6294  0.1614 -0.3009
 1736DECAN   C417344   6.069   7.420   8.666  0.1228 -0.0752  0.0693
 1736DECAN   C517345   6.203   7.487   8.701 -0.0113  0.1109  0.2303
 1736DECAN   C617346   6.181   7.625   8.764  0.0097 -0.0266  0.5384
 1736DECAN   C717347   6.292   7.668   8.862  0.1832 -0.1885  0.4135
 1736DECAN   C817348   6.303   7.583   8.991 -0.5014  0.0251  0.6168
 1736DECAN   C917349   6.341   7.438   8.955 -0.2267  0.1359  0.4542
 1736DECAN  C1017350   6.325   7.344   9.075 -0.3383 -0.3790  0.0421
 1737DECAN   C117351   4.402   9.562   9.510 -0.0464 -0.3026  0.3769
 1737DECAN   C217352   4.363   9.501   9.374 -0.3929  0.0130  0.3327
 1737DECAN   C317353   4.213   9.519   9.345 -0.3605 -0.4950 -0.1684
 1737DECAN   C417354   4.134   9.483   9.472  0.0816 -0.1186  0.2179
 1737DECAN   C517355   4.133   9.601   9.571  0.3817  0.0125  0.0667
 1737DECAN   C617356   4.075   9.726   9.502  0.1989 -0.1657 -0.1042
 1737DECAN   C717357   4.082   9.857   9.582 -0.3331 -0.0793 -0.1978
 1737DECAN   C817358   4.000   9.853   9.712 -0.2019  0.7901 -0.0795
 1737DECAN   C917359   3.852   9.810   9.703  0.0922 -0.2182 -0.1756
 1737DECAN  C1017360   3.768   9.811   9.832  0.5352 -0.4510  0.1151
 1738DECAN   C117361   2.478   3.609  10.424  0.2908 -0.0096  0.2508
 1738DECAN   C217362   2.570   3.702  10.342  0.0175  0.0864  0.0505
 1738DECAN   C317363   2.637   3.820  10.415 -0.4098  0.7826 -0.6667
 1738DECAN   C417364   2.746   3.894  10.337  0.5492 -0.3064 -0.3807
 1738DECAN   C517365   2.796   4.012  10.421 -0.1554 -0.4974  0.3139
 1738DECAN   C617366   2.692   4.126  10.432  0.2531 -0.1334  0.4434
 1738DECAN   C717367   2.556   4.098  10.499 -0.2170  0.1920 -0.3617
 1738DECAN   C817368   2.548   4.105  10.652 -0.6832 -0.3622 -0.3572
 1738DECAN   C917369   2.422   4.048  10.719 -0.3539 -0.3193  0.3066
 1738DECAN  C1017370   2.310   4.153  10.709 -0.0662 -0.0883 -0.5737
 1739DECAN   C117371   4.338   4.577   3.926  0.2895 -0.0246  0.4065
 1739DECAN   C217372   4.387   4.694   4.015  0.0306  0.2564  0.1795
 1739DECAN   C317373   4.290   4.813   4.001 -0.1946  0.0635  0.0837
 1739DECAN   C417374   4.142   4.788   4.035 -0.1953  0.4962  0.4171
 1739DECAN   C517375   4.078   4.661   3.974 -0.3992  0.4361  0.7533
 1739DECAN   C617376   3.925   4.655   3.987 -0.4264 -0.3095  0.1259
 1739DECAN   C717377   3.861   4.757   3.891  0.1629 -0.4368 -0.4081
 1739DECAN   C817378   3.709   4.780   3.903  0.2661  0.2171 -0.3702
 1739DECAN   C917379   3.655   4.907   3.834 -0.3251 -0.3217 -0.9049
 1739DECAN  C1017380   3.612   5.001   3.948 -0.2385 -0.7140 -0.5482
 1740DECAN   C117381   4.592  10.527  12.740  0.8692 -0.8268  0.1619
 1740DECAN   C217382   4.537  10.546  12.598  0.7186  0.6588  0.4011
 1740DECAN   C317383   4.521  10.697  12.576 -0.3305  0.5800  0.5522
 1740DECAN   C417384   4.650  10.777  12.603  0.0479  0.1835 -0.0572
 1740DECAN   C517385   4.759  10.715  12.514 -0.4106 -0.9065  0.1186
 1740DECAN   C617386   4.907  10.746  12.543 -0.6006 -0.0821  0.2333
 1740DECAN   C717387   4.957  10.892  12.547  0.5309 -0.4335 -0.6310
 1740DECAN   C817388   4.906  10.964  12.421  0.1595 -0.0325 -0.2504
 1740DECAN   C917389   4.937  11.115  12.415  0.0501  0.0122  0.2513
 1740DECAN  C1017390   5.089  11.138  12.430 -0.1535  0.9696  0.9237
 1741DECAN   C117391   3.472   8.732   5.656  0.2080 -0.0829  0.3328
 1741DECAN   C217392   3.363   8.840   5.645  0.6412  0.3585  0.3156
 1741DECAN   C317393   3.397   8.952   5.545 -0.4690  0.1570 -0.3100
 1741DECAN   C417394   3.290   9.061   5.527 -0.0249  0.6254 -0.1165
 1741DECAN   C517395   3.342   9.160   5.421 -0.0785  0.0387 -0.6908
 1741DECAN   C617396   3.249   9.282   5.406  0.4194  0.5494  0.2856
 1741DECAN   C717397   3.281   9.361   5.278  0.3050  0.4023  0.1662
 1741DECAN   C817398   3.179   9.471   5.246 -0.1546  0.0410  0.3705
 1741DECAN   C917399   3.038   9.430   5.200  0.0368  0.1579 -0.3296
 1741DECAN  C1017400   2.967   9.560   5.158  0.2357  0.1576 -0.6686
 1742DECAN   C117401   6.618  10.756  14.417 -0.0990  0.1741 -0.0148
 1742DECAN   C217402   6.683  10.647  14.330  0.1829  0.3421 -0.0119
 1742DECAN   C317403   6.793  10.572  14.407 -0.1345  0.4068  0.5046
 1742DECAN   C417404   6.720  10.486  14.513 -0.2118 -0.5308 -0.2884
 1742DECAN   C517405   6.729  10.557  14.649  0.4201 -0.1160 -0.5384
 1742DECAN   C617406   6.871  10.549  14.707  0.0892 -0.3794  0.2496
 1742DECAN   C717407   6.982  10.634  14.643 -0.5622  0.3061  0.0144
 1742DECAN   C817408   7.133  10.608  14.663 -0.4647  0.6996 -0.1924
 1742DECAN   C917409   7.212  10.698  14.567  0.3539  0.1107 -0.0866
 1742DECAN  C1017410   7.203  10.661  14.418 -0.3097  0.4464 -0.1354
 1743DECAN   C117411   9.998  10.872  14.250 -0.7120  0.3999  0.0185
 1743DECAN   C217412   9.951  10.785  14.368 -0.3381  0.6734  0.3701
 1743DECAN   C317413   9.800  10.770  14.348 -0.2268 -0.0263  0.0142
 1743DECAN   C417414   9.740  10.692  14.466  0.7738 -0.3076  0.3440
 1743DECAN   C517415   9.591  10.651  14.470  0.7914 -0.3968  0.0438
 1743DECAN   C617416   9.544  10.553  14.579 -0.2307 -0.2841 -0.2847
 1743DECAN   C717417   9.393  10.538  14.604 -0.2171  0.5010  0.3080
 1743DECAN   C817418   9.346  10.419  14.690 -0.3250  0.3369  0.0237
 1743DECAN   C917419   9.199  10.442  14.731 -0.3193  0.0750  0.1898
 1743DECAN  C1017420   9.122  10.328  14.800 -0.7286  0.1188 -0.1937
 1744DECAN   C117421   8.257   0.972  13.027  1.0230  0.1128 -0.0274
 1744DECAN   C217422   8.303   0.841  12.960 -0.0930 -0.2975 -0.0038
 1744DECAN   C317423   8.413   0.748  13.014  0.4787  0.2989 -0.1303
 1744DECAN   C417424   8.439   0.619  12.935 -0.6846  0.1008 -0.2002
 1744DECAN   C517425   8.581   0.563  12.957 -0.6705  0.4210  0.5360
 1744DECAN   C617426   8.588   0.409  12.957  0.0620  0.4546  0.3722
 1744DECAN   C717427   8.736   0.364  12.961  0.1208  0.5990 -0.0962
 1744DECAN   C817428   8.818   0.430  12.849 -0.0085  0.3021 -0.3674
 1744DECAN   C917429   8.816   0.584  12.843 -0.4242  0.2998 -0.3495
 1744DECAN  C1017430   8.919   0.621  12.734  0.6109  0.0362  0.5195
 1745DECAN   C117431   3.361  10.163  12.502  0.4298 -0.2855 -0.4033
 1745DECAN   C217432   3.455  10.231  12.604 -0.0123  0.4871 -0.5044
 1745DECAN   C317433   3.603  10.196  12.579  0.1535  0.9517 -0.1754
 1745DECAN   C417434   3.659  10.226  12.439 -0.0473 -0.5518 -0.5955
 1745DECAN   C517435   3.660  10.371  12.388  0.3240 -0.3841 -0.1253
 1745DECAN   C617436   3.703  10.384  12.241  0.2637  0.2553 -0.0896
 1745DECAN   C717437   3.726  10.529  12.194  0.1475  0.3130  0.0270
 1745DECAN   C817438   3.764  10.525  12.044  0.2959  0.0249  0.0711
 1745DECAN   C917439   3.743  10.648  11.954  0.4541  0.2193  0.2970
 1745DECAN  C1017440   3.860  10.746  11.937  0.1573  0.5578  0.1885
 1746DECAN   C117441   9.486   7.046   5.282 -0.4145  0.0409 -0.6081
 1746DECAN   C217442   9.579   7.149   5.216  0.2619 -0.4223 -0.3792
 1746DECAN   C317443   9.729   7.112   5.215  0.2189 -0.5993 -0.1624
 1746DECAN   C417444   9.815   7.212   5.137 -0.2674 -0.0717 -0.0236
 1746DECAN   C517445   9.961   7.223   5.183 -0.3636  0.7360  0.1139
 1746DECAN   C617446  10.046   7.320   5.099  0.1293  0.0950 -0.1345
 1746DECAN   C717447  10.018   7.465   5.141 -0.3475 -0.0924  0.1953
 1746DECAN   C817448  10.123   7.571   5.103 -0.1168 -0.4550 -0.1816
 1746DECAN   C917449  10.112   7.717   5.151  0.4395 -0.3282 -0.4371
 1746DECAN  C1017450  10.235   7.797   5.102  0.8000 -0.4964  0.1848
 1747DECAN   C117451   5.425   6.705  11.191 -0.4834 -0.0979  0.0791
 1747DECAN   C217452   5.485   6.841  11.232 -0.5465 -0.0468  0.0044
 1747DECAN   C317453   5.582   6.831  11.352  0.0334 -0.0164 -0.4532
 1747DECAN   C417454   5.674   6.953  11.365  0.0042 -0.0468  0.0419
 1747DECAN   C517455   5.732   6.961  11.508  0.3545  0.4462 -0.1235
 1747DECAN   C617456   5.652   7.047  11.607  0.2413 -0.1231  0.2847
 1747DECAN   C717457   5.686   6.985  11.744  0.2425  0.3763  0.5159
 1747DECAN   C817458   5.623   7.041  11.873  0.1560  0.0500  0.6180
 1747DECAN   C917459   5.679   7.003  12.011  0.0097 -0.2391  0.5952
 1747DECAN  C1017460   5.608   7.095  12.112  0.1538  0.6011 -0.0665
 1748DECAN   C117461   7.262   4.560   8.639  0.1303  0.3000  0.2495
 1748DECAN   C217462   7.235   4.478   8.511  0.2890  0.3454  0.1879
 1748DECAN   C317463   7.135   4.542   8.413 -0.4320 -0.1015  0.6231
 1748DECAN   C417464   7.065   4.448   8.313  0.2582 -0.0834  0.1121
 1748DECAN   C517465   6.963   4.518   8.220  0.2968  0.1222  0.2235
 1748DECAN   C617466   7.035   4.614   8.124  0.3853 -0.2340 -0.0648
 1748DECAN   C717467   6.955   4.695   8.021 -0.0850  0.2424  0.6739
 1748DECAN   C817468   7.022   4.808   7.941 -0.7173  0.2791  0.1814
 1748DECAN   C917469   7.076   4.921   8.033  0.2794 -0.3318  0.3634
 1748DECAN  C1017470   7.167   4.882   8.150  0.2596  0.3395  0.6020
 1749DECAN   C117471   4.467   5.882   8.587 -0.1693 -0.0153  0.1205
 1749DECAN   C217472   4.470   5.965   8.458  0.1962 -0.0763  0.0877
 1749DECAN   C317473   4.497   5.880   8.333  0.6064  0.2657 -0.0569
 1749DECAN   C417474   4.633   5.808   8.337  0.5234  0.0963 -0.2820
 1749DECAN   C517475   4.656   5.705   8.224  0.5370 -0.1888 -0.0198
 1749DECAN   C617476   4.538   5.608   8.201  0.4666  0.0418 -0.6303
 1749DECAN   C717477   4.513   5.525   8.328  0.3711 -0.1697 -0.7884
 1749DECAN   C817478   4.406   5.414   8.326  0.3459 -0.1665  0.2465
 1749DECAN   C917479   4.440   5.282   8.254  0.0766  0.0517 -0.2814
 1749DECAN  C1017480   4.333   5.172   8.271  0.1563 -0.0131 -0.2018
 1750DECAN   C117481   7.041   9.418   8.341 -0.0516  0.2469  0.0427
 1750DECAN   C217482   6.972   9.492   8.224 -0.3669 -0.5484 -0.2851
 1750DECAN   C317483   7.054   9.555   8.109 -0.7836  0.3047 -0.1252
 1750DECAN   C417484   7.131   9.680   8.154 -0.0368  0.1352 -0.9187
 1750DECAN   C517485   7.242   9.718   8.054  0.4337  0.0082 -0.4426
 1750DECAN   C617486   7.354   9.802   8.118 -0.1182  0.3762  0.0471
 1750DECAN   C717487   7.464   9.840   8.017 -0.3651  0.3515 -0.2308
 1750DECAN   C817488   7.595   9.901   8.071 -0.4785  0.6437 -0.2816
 1750DECAN   C917489   7.677   9.984   7.971  0.0843 -0.3105 -0.6264
 1750DECAN  C1017490   7.809  10.038   8.028 -0.6972  0.6542  0.3013
 1751DECAN   C117491   6.699   3.498   6.371 -0.1647 -0.3277  0.5155
 1751DECAN   C217492   6.608   3.534   6.252 -0.2428 -0.3240  0.5753
 1751DECAN   C317493   6.496   3.435   6.216 -0.0700 -0.2704 -0.1359
 1751DECAN   C417494   6.386   3.510   6.139 -0.0830  0.2796  0.4051
 1751DECAN   C517495   6.295   3.607   6.216 -0.0717  0.1926  0.5276
 1751DECAN   C617496   6.190   3.687   6.137 -0.0281 -0.2267  0.0411
 1751DECAN   C717497   6.247   3.800   6.050 -0.3286 -0.3022 -0.2532
 1751DECAN   C817498   6.145   3.890   5.977  0.1285  0.6697  0.2870
 1751DECAN   C917499   6.057   3.990   6.053 -0.3559  0.1474  0.4206
 1751DECAN  C1017500   6.114   4.128   6.092 -0.4397  0.3747 -0.2485
 1752DECAN   C117501   7.859   3.877   5.253  0.2882  0.6035 -0.1350
 1752DECAN   C217502   7.981   3.839   5.340 -0.1701 -0.5890  0.0014
 1752DECAN   C317503   8.110   3.811   5.262 -0.1385 -0.5408  0.0356
 1752DECAN   C417504   8.232   3.788   5.352 -0.2525  0.2071  0.3869
 1752DECAN   C517505   8.255   3.636   5.361  0.2986  0.2235 -0.6660
 1752DECAN   C617506   8.373   3.590   5.448  0.0136  0.3263 -0.2248
 1752DECAN   C717507   8.405   3.442   5.420  0.0408  0.2942 -0.0271
 1752DECAN   C817508   8.506   3.389   5.523 -0.0942  0.2946  0.1062
 1752DECAN   C917509   8.547   3.241   5.536  0.2691  0.3829 -0.0190
 1752DECAN  C1017510   8.592   3.187   5.399 -0.2510 -0.4010  0.1140
 1753DECAN   C117511   3.026   5.509   5.112  0.6572  0.5546 -0.9073
 1753DECAN   C217512   2.944   5.385   5.073  0.5026  0.4107 -0.1477
 1753DECAN   C317513   2.952   5.347   4.924  0.4147 -0.4235  0.0539
 1753DECAN   C417514   2.907   5.203   4.892 -0.1778 -0.2415  0.0473
 1753DECAN   C517515   2.772   5.158   4.949 -0.1299 -0.4809 -0.0259
 1753DECAN   C617516   2.754   5.005   4.946  0.2325 -0.5328  0.3191
 1753DECAN   C717517   2.616   4.961   4.997  0.2235 -0.2749  0.5214
 1753DECAN   C817518   2.602   4.817   5.051  0.6761 -0.4234  0.2462
 1753DECAN   C917519   2.483   4.811   5.149 -0.2498 -0.3632 -0.8499
 1753DECAN  C1017520   2.467   4.680   5.228  0.2114 -0.0121 -0.1627
 1754DECAN   C117521  10.775   2.287  11.553 -0.0444  0.7842 -0.1608
 1754DECAN   C217522  10.814   2.285  11.702  0.2227  0.1482 -0.2335
 1754DECAN   C317523  10.736   2.384  11.790  0.0229  0.0460 -0.2979
 1754DECAN   C417524  10.596   2.326  11.819 -0.0282  0.2824 -0.0718
 1754DECAN   C517525  10.523   2.271  11.695  0.0990  0.4374 -0.2152
 1754DECAN   C617526  10.371   2.293  11.707 -0.0006 -0.3096 -0.0643
 1754DECAN   C717527  10.293   2.226  11.593 -0.0129 -0.2155 -0.1106
 1754DECAN   C817528  10.292   2.072  11.579  0.2630 -0.2212 -0.0682
 1754DECAN   C917529  10.175   2.006  11.504 -0.3148 -0.1017  0.7164
 1754DECAN  C1017530  10.181   1.853  11.515  0.4303 -0.1859 -0.7191
 1755DECAN   C117531   1.923   0.161  12.974  0.1156 -0.2719 -0.1469
 1755DECAN   C217532   1.817   0.144  13.085  0.2124  0.1508  0.0125
 1755DECAN   C317533   1.852   0.052  13.204  0.5927  0.1523 -0.0956
 1755DECAN   C417534   1.882  11.157  13.146 -0.0925 -0.3086  0.6400
 1755DECAN   C517535   1.899  11.050  13.256 -0.0528 -0.2180  0.7212
 1755DECAN   C617536   1.947  10.916  13.197 -0.5296  0.0086 -0.2064
 1755DECAN   C717537   1.836  10.850  13.113 -0.4159  0.2111 -0.5134
 1755DECAN   C817538   1.856  10.697  13.110  0.1163  0.2726 -0.1483
 1755DECAN   C917539   1.792  10.611  13.000  0.0549  0.1533 -0.0191
 1755DECAN  C1017540   1.874  10.483  12.973 -0.4980 -0.1456 -0.2951
 1756DECAN   C117541   7.518  11.244   5.274 -0.0873 -0.5604 -0.7465
 1756DECAN   C217542   7.585   0.087   5.167 -0.1777  0.2505 -0.1525
 1756DECAN   C317543   7.547   0.027   5.030 -0.3018  0.0874 -0.0453
 1756DECAN   C417544   7.599   0.117   4.917 -0.1112 -0.2683 -0.2412
 1756DECAN   C517545   7.562   0.090   4.770 -0.0292  0.2992 -0.3665
 1756DECAN   C617546   7.416   0.090   4.722 -0.0925 -0.0142 -0.1817
 1756DECAN   C717547   7.335  11.208   4.754  0.1144 -0.0681  0.1248
 1756DECAN   C817548   7.201  11.185   4.682  0.2169  0.0133 -0.0917
 1756DECAN   C917549   7.126  11.056   4.719 -0.0505 -0.0850 -0.9438
 1756DECAN  C1017550   6.987  11.046   4.655 -0.3020  0.9253 -0.5825
 1757DECAN   C117551   9.718  10.012  11.673  0.0518 -0.1601  0.1083
 1757DECAN   C217552   9.728   9.968  11.820 -0.0855 -0.0656  0.1468
 1757DECAN   C317553   9.761   9.822  11.858  0.3450 -0.0749 -0.2579
 1757DECAN   C417554   9.819   9.813  12.000  0.0286 -0.3344 -0.1437
 1757DECAN   C517555   9.767   9.711  12.103 -0.3315 -0.2583 -0.2485
 1757DECAN   C617556   9.831   9.718  12.243 -0.4075  0.2146 -0.2378
 1757DECAN   C717557   9.802   9.607  12.346 -0.2399  0.4696  0.0887
 1757DECAN   C817558   9.863   9.622  12.486 -0.4331  0.0758  0.2164
 1757DECAN   C917559   9.801   9.540  12.600 -0.1241 -0.3853  0.0561
 1757DECAN  C1017560   9.856   9.572  12.740  0.1019  0.2876 -0.1807
 1758DECAN   C117561   1.819   4.272  13.474 -0.0944 -0.9366  0.4186
 1758DECAN   C217562   1.925   4.256  13.363 -0.6135 -0.3823 -0.1638
 1758DECAN   C317563   2.001   4.124  13.384  0.1456  0.0995  0.1881
 1758DECAN   C417564   2.123   4.102  13.292 -0.0316 -0.1499  0.0100
 1758DECAN   C517565   2.249   4.180  13.332 -0.1384  0.0596 -0.0593
 1758DECAN   C617566   2.227   4.332  13.332  0.2089  0.1110 -0.2838
 1758DECAN   C717567   2.340   4.414  13.397  0.2929  0.1293 -0.4508
 1758DECAN   C817568   2.306   4.558  13.438 -0.3624 -0.1005 -0.1605
 1758DECAN   C917569   2.436   4.605  13.507 -0.8408  0.3415  0.4547
 1758DECAN  C1017570   2.494   4.502  13.606 -0.0514  0.4330  0.0934
 1759DECAN   C117571   9.138   2.457   4.250  0.0926 -0.8125 -0.3774
 1759DECAN   C217572   8.992   2.418   4.279 -0.0460  0.0279  0.0734
 1759DECAN   C317573   8.973   2.385   4.428 -0.9047  0.3910  0.0487
 1759DECAN   C417574   8.825   2.374   4.471 -0.7033 -0.4844  0.5456
 1759DECAN   C517575   8.741   2.502   4.450  0.3270  0.0119 -0.7032
 1759DECAN   C617576   8.591   2.471   4.468  0.3113  0.5722  0.1856
 1759DECAN   C717577   8.498   2.574   4.401  0.0490  0.3052  0.1364
 1759DECAN   C817578   8.509   2.714   4.464 -0.0559  0.3243  0.1122
 1759DECAN   C917579   8.640   2.790   4.432 -0.0000  0.1015 -0.1921
 1759DECAN  C1017580   8.662   2.922   4.508  0.1593 -0.0724  0.0676
 1760DECAN   C117581   9.757  10.893  11.041  0.3756 -0.6864  0.1263
 1760DECAN   C217582   9.908  10.865  11.025  0.4856  0.2198 -0.4985
 1760DECAN   C317583   9.989  10.996  11.030  0.5549  0.1448  0.4084
 1760DECAN   C417584   9.927  11.100  10.935  0.5040 -0.2395  0.0128
 1760DECAN   C517585   9.822  11.194  10.997  0.1557 -0.4500 -0.2588
 1760DECAN   C617586   9.754   0.031  10.885 -0.2641  0.2381  0.4803
 1760DECAN   C717587   9.820   0.152  10.815  0.2236 -0.2686  0.0482
 1760DECAN   C817588   9.948   0.124  10.734  0.0878 -0.2093 -0.1868
 1760DECAN   C917589  10.000   0.254  10.671 -0.8367  0.1533 -0.2239
 1760DECAN  C1017590  10.084   0.340  10.768 -0.3164 -0.1199 -0.4250
 1761DECAN   C117591   2.607   1.678   4.919 -1.0154 -0.1133 -0.1404
 1761DECAN   C217592   2.495   1.743   5.003 -0.1229  0.0227  0.9740
 1761DECAN   C317593   2.380   1.793   4.914  0.5843  0.0433  0.0578
 1761DECAN   C417594   2.253   1.856   4.975  0.6709 -0.1117  0.3995
 1761DECAN   C517595   2.166   1.926   4.869  0.2799 -0.4273  0.5121
 1761DECAN   C617596   2.229   2.043   4.791 -0.3701 -0.2009  0.3154
 1761DECAN   C717597   2.297   2.159   4.866  0.2852 -0.4028  0.0381
 1761DECAN   C817598   2.358   2.255   4.761 -0.4021 -0.2308 -0.2075
 1761DECAN   C917599   2.457   2.205   4.655  0.1141  0.5762 -0.1162
 1761DECAN  C1017600   2.396   2.110   4.551 -0.2972  0.4495  0.2376
 1762DECAN   C117601   5.906   9.740  10.872  0.3868 -0.8164 -0.3435
 1762DECAN   C217602   6.026   9.737  10.969  0.2236 -0.2248 -0.1152
 1762DECAN   C317603   6.098   9.601  10.973  0.4494 -0.0939  0.3450
 1762DECAN   C417604   6.215   9.592  11.072  0.5227  0.4725  0.3131
 1762DECAN   C517605   6.160   9.621  11.213  0.2157 -0.0448  0.3011
 1762DECAN   C617606   6.270   9.635  11.321  0.2625 -0.1236  0.2644
 1762DECAN   C717607   6.197   9.659  11.454 -0.1647 -0.0918  0.0283
 1762DECAN   C817608   6.299   9.691  11.565 -0.0058 -1.2818  0.2396
 1762DECAN   C917609   6.240   9.676  11.707  0.0739  0.2506  0.4494
 1762DECAN  C1017610   6.327   9.734  11.820 -0.4775  0.1813  0.9129
 1763DECAN   C117611   7.434   2.538  11.408  0.0038 -0.3327  0.4443
 1763DECAN   C217612   7.557   2.445  11.409 -0.1640 -0.5591  0.2913
 1763DECAN   C317613   7.556   2.337  11.518 -0.3968 -0.9922 -0.1411
 1763DECAN   C417614   7.681   2.253  11.551  0.2148 -0.1329 -0.2458
 1763DECAN   C517615   7.659   2.150  11.664 -0.0045 -0.1528 -0.3051
 1763DECAN   C617616   7.781   2.057  11.680 -0.1680 -0.4702 -0.8806
 1763DECAN   C717617   7.763   1.938  11.776  0.1982  0.2037  0.0376
 1763DECAN   C817618   7.787   1.972  11.924  0.0768  0.2920  0.0370
 1763DECAN   C917619   7.669   2.041  11.995 -0.1301 -0.1085  0.0851
 1763DECAN  C1017620   7.668   2.056  12.149 -0.3142  0.2265  0.0520
 1764DECAN   C117621   1.347   4.752  10.124 -0.0174  0.0086  0.1146
 1764DECAN   C217622   1.370   4.789   9.976 -0.0266 -0.7449 -0.0774
 1764DECAN   C317623   1.517   4.832   9.960 -0.0088 -0.7555  0.0495
 1764DECAN   C417624   1.521   4.882   9.814  0.0701 -0.4882  0.1410
 1764DECAN   C517625   1.445   5.013   9.786  0.1004 -0.3853  0.5449
 1764DECAN   C617626   1.293   4.996   9.806 -0.0236  0.1147  0.0244
 1764DECAN   C717627   1.216   4.933   9.689  0.4392 -0.6437  0.1235
 1764DECAN   C817628   1.073   4.888   9.725  0.2787 -0.0926  0.1819
 1764DECAN   C917629   0.985   4.833   9.611  0.3369  0.1265  0.0306
 1764DECAN  C1017630   0.849   4.787   9.667  0.4603 -0.0494  0.1865
 1765DECAN   C117631   7.878   7.267   7.549 -0.1041 -0.0584 -0.5550
 1765DECAN   C217632   7.766   7.175   7.499 -0.0480 -0.5340  0.1690
 1765DECAN   C317633   7.712   7.070   7.598  0.1138 -0.3481  0.4538
 1765DECAN   C417634   7.593   6.987   7.545  0.2469 -0.2932  0.0629
 1765DECAN   C517635   7.538   6.897   7.657 -0.1700  0.2937  0.3377
 1765DECAN   C617636   7.395   6.855   7.619  0.3243 -0.7884 -0.3916
 1765DECAN   C717637   7.324   6.760   7.717 -0.2132  0.5206  0.5093
 1765DECAN   C817638   7.203   6.685   7.658  0.0117  0.6137 -0.0745
 1765DECAN   C917639   7.239   6.584   7.548 -0.4271  0.0025  0.3387
 1765DECAN  C1017640   7.339   6.477   7.597 -0.2116 -0.1801 -0.4852
 1766DECAN   C117641   9.649   5.384  12.355 -0.2784  0.2395  0.4093
 1766DECAN   C217642   9.516   5.370  12.432 -0.1637 -0.1446  0.5424
 1766DECAN   C317643   9.417   5.294  12.342  0.1010  0.3880 -0.2083
 1766DECAN   C417644   9.268   5.282  12.379  0.2644 -0.0098  0.3359
 1766DECAN   C517645   9.192   5.182  12.289  0.0987  0.2121  0.2287
 1766DECAN   C617646   9.050   5.156  12.343 -0.0300 -0.2192 -0.3132
 1766DECAN   C717647   8.945   5.261  12.301 -0.2464 -0.5907 -0.7145
 1766DECAN   C817648   8.811   5.264  12.376  0.4139  0.1527  0.4679
 1766DECAN   C917649   8.728   5.391  12.348  0.1647  0.0499  0.7274
 1766DECAN  C1017650   8.586   5.361  12.397 -0.2806  0.1493 -0.4557
 1767DECAN   C117651   4.022  10.015  11.882 -0.5034 -0.2713 -0.1145
 1767DECAN   C217652   3.902   9.987  11.974 -0.7586 -0.5201 -0.5170
 1767DECAN   C317653   3.926   9.878  12.079 -0.2408  0.0802 -0.0045
 1767DECAN   C417654   3.791   9.876  12.152  0.0053  0.4319  0.4654
 1767DECAN   C517655   3.788   9.798  12.285 -0.1439 -0.3107  0.0354
 1767DECAN   C617656   3.650   9.799  12.354 -0.3715  0.8753 -0.4087
 1767DECAN   C717657   3.641   9.709  12.479 -0.2918  0.5676 -0.6213
 1767DECAN   C817658   3.603   9.561  12.467  0.4599  0.2858  0.3057
 1767DECAN   C917659   3.616   9.491  12.603  0.0072 -0.4849 -0.0396
 1767DECAN  C1017660   3.522   9.525  12.720  0.1946  0.2576 -0.1011
 1768DECAN   C117661   1.080  10.197  10.919  0.1151  0.6294 -0.0645
 1768DECAN   C217662   1.169  10.095  10.992 -0.0232  0.3954 -0.2217
 1768DECAN   C317663   1.230   9.984  10.904 -0.1879 -0.0881  0.2678
 1768DECAN   C417664   1.352   9.915  10.969  0.0317 -0.2160 -0.2751
 1768DECAN   C517665   1.410   9.799  10.886  0.3069 -0.1312 -0.2036
 1768DECAN   C617666   1.430   9.835  10.737 -0.3529  0.3529 -0.1843
 1768DECAN   C717667   1.521   9.738  10.659 -0.9470 -0.1878 -0.2145
 1768DECAN   C817668   1.491   9.590  10.690  0.0073 -0.3316  0.0517
 1768DECAN   C917669   1.561   9.488  10.598  0.2448  0.0772 -0.2252
 1768DECAN  C1017670   1.506   9.485  10.454 -0.1554 -0.1639 -0.0686
 1769DECAN   C117671   8.224  10.854   9.384  0.5423 -0.7084  0.1155
 1769DECAN   C217672   8.266  10.983   9.312 -0.2461 -0.4818  0.0502
 1769DECAN   C317673   8.314  11.097   9.405 -0.4124 -0.1917 -0.2164
 1769DECAN   C417674   8.355  11.234   9.349 -0.1190 -0.3187 -0.3154
 1769DECAN   C517675   8.389   0.092   9.459 -0.7112 -0.2075 -0.2292
 1769DECAN   C617676   8.439   0.224   9.398  0.1598 -0.1061  0.6756
 1769DECAN   C717677   8.446   0.336   9.504  0.2716  0.2114  0.3360
 1769DECAN   C817678   8.487   0.471   9.444 -0.3055  0.1632 -0.1793
 1769DECAN   C917679   8.458   0.587   9.542  0.4538  0.0853  0.1439
 1769DECAN  C1017680   8.519   0.723   9.501  0.0286  0.1835 -0.1682
 1770DECAN   C117681   6.630   7.072   4.916 -0.0207 -0.2130  0.1196
 1770DECAN   C217682   6.523   6.963   4.901 -0.2455  0.0070  0.1070
 1770DECAN   C317683   6.412   6.991   4.799 -0.1456 -0.3077 -0.0902
 1770DECAN   C417684   6.299   6.887   4.792 -0.2122 -0.2379 -0.0663
 1770DECAN   C517685   6.198   6.885   4.677 -0.2445  0.0664 -0.0453
 1770DECAN   C617686   6.065   6.816   4.714 -0.1393 -0.2553 -0.2662
 1770DECAN   C717687   6.071   6.662   4.720  0.2489 -0.2149  0.4258
 1770DECAN   C817688   5.927   6.614   4.748 -0.0018  0.2453 -0.0656
 1770DECAN   C917689   5.922   6.460   4.758 -0.6419  0.2499 -0.2827
 1770DECAN  C1017690   5.787   6.398   4.799  0.2305 -1.0351  0.7143
 1771DECAN   C117691   3.889  10.891   7.283 -0.0530  0.4221 -0.7545
 1771DECAN   C217692   4.017  10.968   7.245  0.1442  0.2117 -0.5172
 1771DECAN   C317693   4.144  10.900   7.298 -0.1898 -0.1187 -0.1268
 1771DECAN   C417694   4.167  10.759   7.242 -0.1947 -0.3677  0.4833
 1771DECAN   C517695   4.284  10.681   7.303  0.0038 -0.0527  0.5052
 1771DECAN   C617696   4.420  10.725   7.243 -0.3858  0.2804 -0.1438
 1771DECAN   C717697   4.444  10.874   7.270  0.5875  0.1451 -0.2222
 1771DECAN   C817698   4.571  10.937   7.211  0.3906  0.3870 -0.3936
 1771DECAN   C917699   4.684  10.874   7.294  0.1578  0.9797  0.3854
 1771DECAN  C1017700   4.823  10.912   7.237  0.3099 -0.2820 -0.1089
 1772DECAN   C117701   9.772   8.728   6.708  0.2634 -0.0390  0.0538
 1772DECAN   C217702   9.770   8.869   6.771  0.4440  0.3151 -0.7165
 1772DECAN   C317703   9.631   8.933   6.783  0.2091 -0.2688 -0.2201
 1772DECAN   C417704   9.546   8.885   6.902 -0.6542  0.3353 -0.5792
 1772DECAN   C517705   9.401   8.934   6.916 -0.7776 -0.2028  0.0635
 1772DECAN   C617706   9.400   9.087   6.903 -0.4042 -0.2106 -0.0552
 1772DECAN   C717707   9.257   9.133   6.933 -0.1192  0.4581  0.3090
 1772DECAN   C817708   9.246   9.286   6.916  0.3013  0.4323 -0.1862
 1772DECAN   C917709   9.109   9.355   6.927  0.1439  0.0484  0.3097
 1772DECAN  C1017710   9.036   9.341   7.062 -0.1728 -0.3715  0.0963
 1773DECAN   C117711  10.816   3.009   8.900 -0.4537 -0.0487 -0.0501
 1773DECAN   C217712  10.856   3.096   8.779  0.2544  0.0212  0.2306
 1773DECAN   C317713  10.768   3.076   8.655  0.5078 -0.2193  0.0884
 1773DECAN   C417714  10.822   3.147   8.529  0.3290  0.0997  0.1898
 1773DECAN   C517715  10.725   3.150   8.410  0.2675 -0.4222  0.2241
 1773DECAN   C617716  10.778   3.237   8.295 -0.6700 -0.1136  0.0163
 1773DECAN   C717717  10.768   3.387   8.326 -0.0146  0.0111 -0.3485
 1773DECAN   C817718  10.863   3.482   8.251 -0.3893  0.4789 -0.2358
 1773DECAN   C917719  10.849   3.635   8.265 -0.8066  0.4044  0.1845
 1773DECAN  C1017720  10.947   3.706   8.170 -0.5011  0.1547  0.3132
 1774DECAN   C117721   2.480   3.515  10.035  0.1250  0.3129 -0.2254
 1774DECAN   C217722   2.526   3.538   9.890  0.8238  0.2219 -0.0261
 1774DECAN   C317723   2.479   3.427   9.794 -0.0236  0.3356  0.2451
 1774DECAN   C417724   2.552   3.419   9.658  0.1354 -0.1974  0.3597
 1774DECAN   C517725   2.486   3.295   9.596  0.8359 -0.4309  0.0784
 1774DECAN   C617726   2.471   3.168   9.681  0.3088 -0.1403  0.4229
 1774DECAN   C717727   2.415   3.050   9.599  0.2867 -0.0721  0.3405
 1774DECAN   C817728   2.514   3.007   9.489  0.1911 -0.0772  0.2565
 1774DECAN   C917729   2.633   2.916   9.524  0.3025 -0.1067 -0.1880
 1774DECAN  C1017730   2.728   2.951   9.641  0.0683 -0.0724 -0.0077
 1775DECAN   C117731   7.856   0.026  13.969  0.3584  0.2882 -0.0217
 1775DECAN   C217732   7.881   0.127  13.856  0.6773  0.1011 -0.1205
 1775DECAN   C317733   7.767   0.171  13.762  0.4871 -0.5234 -0.1840
 1775DECAN   C417734   7.691   0.047  13.711 -0.4353  0.1110 -0.3835
 1775DECAN   C517735   7.779  11.195  13.627  0.1667  0.1290  0.2194
 1775DECAN   C617736   7.758  11.044  13.648  0.0773 -0.0336 -0.9633
 1775DECAN   C717737   7.845  10.955  13.558  0.3849 -0.4663 -0.2446
 1775DECAN   C817738   7.823  10.802  13.562  0.1315 -0.4489 -0.9579
 1775DECAN   C917739   7.697  10.751  13.489 -0.5928  0.1018 -0.1177
 1775DECAN  C1017740   7.683  10.795  13.342 -0.2950  0.1976 -0.1188
 1776DECAN   C117741   2.741   7.997  12.427 -0.2491 -0.1236  0.1082
 1776DECAN   C217742   2.661   7.867  12.408  0.2456 -0.3199 -0.6786
 1776DECAN   C317743   2.535   7.891  12.324 -0.2852 -0.0969  0.1714
 1776DECAN   C417744   2.569   7.909  12.175 -0.0651 -0.2845  0.1984
 1776DECAN   C517745   2.445   7.915  12.083 -0.2107 -0.0617  0.4078
 1776DECAN   C617746   2.385   7.774  12.081 -0.0374 -0.1356  0.3922
 1776DECAN   C717747   2.478   7.662  12.031  0.0924  0.2669 -0.2749
 1776DECAN   C817748   2.435   7.524  12.084 -0.3005  0.3305 -0.4304
 1776DECAN   C917749   2.439   7.524  12.238  0.0391  0.1161 -0.4389
 1776DECAN  C1017750   2.308   7.572  12.304  0.1911 -0.2215  0.1147
 1777DECAN   C117751   8.469   3.010   4.114 -0.6278 -0.4349 -0.6253
 1777DECAN   C217752   8.382   3.126   4.168  0.6841  0.6051 -0.6836
 1777DECAN   C317753   8.469   3.239   4.225  0.5611  0.5032 -0.2922
 1777DECAN   C417754   8.385   3.351   4.290 -0.0645  0.1349 -0.4571
 1777DECAN   C517755   8.469   3.460   4.359 -0.3515 -0.2417  0.5026
 1777DECAN   C617756   8.383   3.579   4.406  0.0771  0.0489  0.5516
 1777DECAN   C717757   8.252   3.529   4.470 -0.4955  0.0150 -0.6271
 1777DECAN   C817758   8.146   3.638   4.488 -0.7373 -0.3174  0.0119
 1777DECAN   C917759   8.160   3.731   4.610  0.1032 -0.1746 -0.1881
 1777DECAN  C1017760   8.050   3.836   4.626  0.1225 -0.0981 -0.5540
 1778DECAN   C117761  10.743   1.811   8.941  0.3443 -0.2610  0.8882
 1778DECAN   C217762  10.598   1.835   8.986  0.1185  0.1835 -0.0351
 1778DECAN   C317763  10.488   1.824   8.879  0.2517  0.0887 -0.1628
 1778DECAN   C417764  10.480   1.687   8.809  0.4169 -0.1430  0.2627
 1778DECAN   C517765  10.590   1.651   8.707  0.0936 -0.0601 -0.1210
 1778DECAN   C617766  10.583   1.516   8.635  0.8315 -0.1116 -0.1026
 1778DECAN   C717767  10.567   1.407   8.743 -0.5107 -0.1662 -0.3374
 1778DECAN   C817768  10.575   1.264   8.687 -0.1316 -0.1478 -0.3342
 1778DECAN   C917769  10.514   1.167   8.791 -0.4008 -0.1352 -0.4783
 1778DECAN  C1017770  10.361   1.176   8.800 -0.3353  0.4662  0.2207
 1779DECAN   C117771   4.575   0.908  13.878 -0.0377  0.3449  0.0796
 1779DECAN   C217772   4.600   0.852  14.019 -0.3683 -0.3320 -0.1300
 1779DECAN   C317773   4.648   0.706  14.030  0.3608 -0.0709  0.1385
 1779DECAN   C417774   4.662   0.637  14.167 -0.6609 -0.2958  0.1374
 1779DECAN   C517775   4.642   0.485  14.172 -0.2633 -0.3468  0.2780
 1779DECAN   C617776   4.746   0.408  14.088  0.2129  0.4179  0.1639
 1779DECAN   C717777   4.890   0.420  14.143  0.2158 -0.3197  0.3307
 1779DECAN   C817778   4.994   0.407  14.030 -0.2335  0.2188 -0.1559
 1779DECAN   C917779   5.134   0.413  14.096 -0.1679  0.3321 -0.3049
 1779DECAN  C1017780   5.252   0.463  14.011  0.4943 -0.6330  0.0334
 1780DECAN   C117781   9.249   3.075   6.588  0.3605  0.5506 -0.1233
 1780DECAN   C217782   9.385   3.018   6.545 -0.0129 -0.3711 -0.1003
 1780DECAN   C317783   9.375   2.956   6.405  0.2346 -0.7571  0.0498
 1780DECAN   C417784   9.507   2.888   6.365  0.4604 -0.3282  0.0649
 1780DECAN   C517785   9.527   2.862   6.215  0.4038  0.2752 -0.0497
 1780DECAN   C617786   9.660   2.797   6.172  0.3157  0.0750 -0.0208
 1780DECAN   C717787   9.669   2.778   6.020 -0.4300 -0.7648  0.0349
 1780DECAN   C817788   9.800   2.714   5.969 -0.2340 -0.5948  0.3236
 1780DECAN   C917789   9.832   2.584   6.045 -0.4394 -0.4097  0.7313
 1780DECAN  C1017790   9.903   2.612   6.178 -0.1336 -0.5801  0.6057
 1781DECAN   C117791   7.022   8.006   6.250 -0.4770  0.7339  0.1564
 1781DECAN   C217792   6.960   8.018   6.390  0.0656  0.2583  0.4395
 1781DECAN   C317793   6.820   7.956   6.400  0.3560 -0.4218  0.3172
 1781DECAN   C417794   6.737   8.010   6.518 -0.0244 -0.3427  0.0191
 1781DECAN   C517795   6.605   7.938   6.549 -0.0313 -0.4146 -0.1779
 1781DECAN   C617796   6.543   7.971   6.686 -0.0761  0.1372 -0.3296
 1781DECAN   C717797   6.465   8.103   6.693 -0.1917  0.0436  0.1725
 1781DECAN   C817798   6.458   8.140   6.842 -0.4335 -0.4755  0.2920
 1781DECAN   C917799   6.381   8.270   6.872 -0.1194 -0.2482  0.1102
 1781DECAN  C1017800   6.384   8.307   7.022 -0.0591  0.2890 -0.0203
 1782DECAN   C117801   3.446   9.852  10.039 -0.3142 -0.3963 -0.3444
 1782DECAN   C217802   3.374   9.861  10.175  0.0711 -0.1871 -0.1526
 1782DECAN   C317803   3.342   9.721  10.230  0.3012 -0.2225 -0.1098
 1782DECAN   C417804   3.304   9.745  10.377  0.6058 -0.2757 -0.0217
 1782DECAN   C517805   3.275   9.621  10.464  0.0334  0.2809  0.5915
 1782DECAN   C617806   3.357   9.497  10.423  0.2148  0.6090 -0.0442
 1782DECAN   C717807   3.349   9.400  10.541 -0.2359 -0.0607 -0.6204
 1782DECAN   C817808   3.426   9.268  10.520 -0.2761 -0.1973  0.0702
 1782DECAN   C917809   3.578   9.286  10.525 -0.2908 -0.0854  0.1177
 1782DECAN  C1017810   3.633   9.300  10.669 -0.5170  0.2875  0.1675
 1783DECAN   C117811   6.541   7.486   5.121 -0.3921  0.0935  0.0256
 1783DECAN   C217812   6.486   7.625   5.082  0.2294  0.3685  0.1295
 1783DECAN   C317813   6.573   7.711   4.989 -0.3189  0.4008 -0.3563
 1783DECAN   C417814   6.506   7.838   4.933 -0.3446  0.3223 -0.5020
 1783DECAN   C517815   6.598   7.911   4.833  0.3357 -0.5559 -0.5263
 1783DECAN   C617816   6.532   8.024   4.751  0.0436 -0.0979  0.3330
 1783DECAN   C717817   6.521   8.152   4.836  0.4448  0.2384 -0.1174
 1783DECAN   C817818   6.496   8.279   4.753 -0.0639  0.2302  0.0217
 1783DECAN   C917819   6.606   8.335   4.661  0.3390 -0.1290  0.2859
 1783DECAN  C1017820   6.561   8.459   4.582 -0.3048 -0.2750  0.4226
 1784DECAN   C117821   2.173   5.497  12.324 -0.0329 -0.1851 -0.2585
 1784DECAN   C217822   2.031   5.516  12.380  0.0811 -0.0538 -0.0165
 1784DECAN   C317823   1.926   5.564  12.279  0.4639  0.5910 -0.1125
 1784DECAN   C417824   1.804   5.624  12.352 -0.1220 -0.3369 -0.3135
 1784DECAN   C517825   1.731   5.710  12.248 -0.1431 -0.1812 -0.1693
 1784DECAN   C617826   1.589   5.750  12.295 -0.0808 -0.1798  0.0188
 1784DECAN   C717827   1.510   5.791  12.169  0.1609  0.1307 -0.0324
 1784DECAN   C817828   1.364   5.835  12.191  0.0255 -0.3824  0.1045
 1784DECAN   C917829   1.324   5.898  12.056  0.8662 -0.2009 -0.0631
 1784DECAN  C1017830   1.357   5.819  11.928 -0.6591 -0.2485 -0.4462
 1785DECAN   C117831   5.811   3.062  12.250 -0.2165  0.0150  0.1477
 1785DECAN   C217832   5.876   3.180  12.325  0.1091  0.0226 -0.1441
 1785DECAN   C317833   5.817   3.211  12.464  0.0280  0.6234 -0.3126
 1785DECAN   C417834   5.879   3.325  12.547 -0.4902  0.4431  0.3345
 1785DECAN   C517835   5.840   3.310  12.695 -0.4068 -0.3057  0.2867
 1785DECAN   C617836   5.910   3.185  12.751  0.3189  0.1376  0.3884
 1785DECAN   C717837   5.873   3.139  12.893 -0.0919 -0.1973  0.1767
 1785DECAN   C817838   5.875   2.990  12.930  0.2553 -0.1779  0.2364
 1785DECAN   C917839   5.784   2.954  13.049 -0.4255 -0.0120 -0.2292
 1785DECAN  C1017840   5.762   2.803  13.073 -0.5732  0.0658  0.1391
 1786DECAN   C117841   8.452   8.424  10.034  0.5342 -0.1957 -0.4405
 1786DECAN   C217842   8.518   8.542  10.107  0.2693 -0.1995 -0.1926
 1786DECAN   C317843   8.432   8.583  10.228  0.4675  0.3455 -0.2325
 1786DECAN   C417844   8.490   8.686  10.327 -0.2380  0.0525  0.5043
 1786DECAN   C517845   8.480   8.829  10.271  0.3180 -0.1868 -0.2281
 1786DECAN   C617846   8.565   8.920  10.362 -0.1614  0.0009  0.0361
 1786DECAN   C717847   8.554   9.070  10.333 -0.2912 -0.0146  0.0013
 1786DECAN   C817848   8.656   9.152  10.413 -0.7120  0.4329  0.0873
 1786DECAN   C917849   8.640   9.109  10.560 -0.0690  0.4544  0.1689
 1786DECAN  C1017850   8.738   9.172  10.661  0.5881 -0.0216 -0.1650
 1787DECAN   C117851   5.999   2.699  12.134  0.1597 -0.6826 -0.3698
 1787DECAN   C217852   6.111   2.697  12.029  0.2098  0.3973 -0.3510
 1787DECAN   C317853   6.242   2.763  12.076  0.0703  0.4319 -0.0089
 1787DECAN   C417854   6.351   2.750  11.968 -0.3048 -0.1746 -0.3125
 1787DECAN   C517855   6.366   2.606  11.915  0.0855 -0.3456  0.2592
 1787DECAN   C617856   6.504   2.563  11.860  0.1370  0.3587 -0.1704
 1787DECAN   C717857   6.504   2.414  11.821  0.1107  0.2184  0.3524
 1787DECAN   C817858   6.640   2.368  11.764 -0.0286  0.0936  0.1226
 1787DECAN   C917859   6.616   2.234  11.692  0.0471 -0.1592  0.5666
 1787DECAN  C1017860   6.731   2.178  11.606 -0.4212 -0.5210  0.1655
 1788DECAN   C117861   6.758   6.674   6.364  0.4695  0.2586  0.6389
 1788DECAN   C217862   6.731   6.821   6.325  0.4183 -0.0094 -0.3534
 1788DECAN   C317863   6.848   6.865   6.235  0.2180  0.4090 -0.4075
 1788DECAN   C417864   6.836   7.014   6.195  0.1796  0.4935 -0.0870
 1788DECAN   C517865   6.930   7.063   6.084  0.1088 -0.0975 -0.4176
 1788DECAN   C617866   6.887   7.207   6.048 -0.4638  0.0303  0.7113
 1788DECAN   C717867   6.752   7.215   5.975  0.1885 -0.4994 -0.5858
 1788DECAN   C817868   6.636   7.138   6.041  0.5183 -0.5098 -0.0119
 1788DECAN   C917869   6.505   7.129   5.961  0.4844 -0.1052 -0.0028
 1788DECAN  C1017870   6.415   7.033   6.041  0.1920 -0.0224 -0.2290
 1789DECAN   C117871   3.901   4.461  10.058  0.2100  0.1532  0.0193
 1789DECAN   C217872   3.830   4.597  10.054  0.4726  0.2979  0.2427
 1789DECAN   C317873   3.729   4.592  10.169  0.0731  0.0893 -0.1135
 1789DECAN   C417874   3.619   4.697  10.143  0.0518  0.0952 -0.0005
 1789DECAN   C517875   3.503   4.666  10.239  0.0758 -0.3809 -0.1182
 1789DECAN   C617876   3.370   4.723  10.185  0.2493 -0.4172 -0.5799
 1789DECAN   C717877   3.249   4.642  10.233 -0.1583  0.7297  0.3653
 1789DECAN   C817878   3.229   4.501  10.175 -0.5854  0.7252  0.5171
 1789DECAN   C917879   3.098   4.428  10.209 -0.1624 -0.1694  0.2482
 1789DECAN  C1017880   3.073   4.291  10.142 -0.8397  0.1752 -0.2155
 1790DECAN   C117881   7.610   4.310   3.989 -0.3752  0.3343 -0.1306
 1790DECAN   C217882   7.565   4.418   4.089  0.2365  0.1745  0.3238
 1790DECAN   C317883   7.606   4.562   4.054  0.1128 -0.0311 -0.6810
 1790DECAN   C417884   7.501   4.663   4.106 -0.1105 -0.4921 -0.2216
 1790DECAN   C517885   7.498   4.671   4.259  0.2864 -0.2656 -0.2219
 1790DECAN   C617886   7.467   4.534   4.323  0.4359 -0.1295  0.1470
 1790DECAN   C717887   7.443   4.552   4.474  0.1419 -0.4048  0.1336
 1790DECAN   C817888   7.387   4.426   4.542 -0.1866 -0.2706  0.1136
 1790DECAN   C917889   7.397   4.423   4.696 -0.2827  0.4647  0.1357
 1790DECAN  C1017890   7.315   4.317   4.772  0.2485  0.1331  0.2470
 1791DECAN   C117891   1.897   5.184  12.238  0.9400 -0.3206  0.3913
 1791DECAN   C217892   1.893   5.193  12.084  0.0793 -0.2088  0.4137
 1791DECAN   C317893   1.996   5.101  12.016 -0.0663 -0.2258  0.2121
 1791DECAN   C417894   2.015   5.123  11.865  0.5002 -0.1829  0.2890
 1791DECAN   C517895   2.131   5.032  11.820  0.1089 -0.1857 -0.7311
 1791DECAN   C617896   2.137   5.014  11.667 -0.4158 -0.4986 -0.7147
 1791DECAN   C717897   2.255   4.935  11.608  0.3987  0.0977  0.1069
 1791DECAN   C817898   2.254   4.915  11.456  0.1817 -0.1055  0.1362
 1791DECAN   C917899   2.371   4.819  11.430  0.4621  0.1421  0.4748
 1791DECAN  C1017900   2.392   4.782  11.281  0.4335  0.2273  0.4494
 1792DECAN   C117901   8.776   0.032  14.832  0.2196 -0.1150 -0.3064
 1792DECAN   C217902   8.682  11.161  14.792 -0.3597  0.2256  0.0782
 1792DECAN   C317903   8.725  11.025  14.850 -0.1195  0.0049 -0.6126
 1792DECAN   C417904   8.630  10.912  14.807 -0.1122 -0.2487  0.0320
 1792DECAN   C517905   8.642  10.781  14.887  0.0796 -0.2325  0.0290
 1792DECAN   C617906   8.538  10.671  14.858 -0.0438 -0.1906  0.3049
 1792DECAN   C717907   8.544  10.622  14.712  0.0111 -0.1546  0.2952
 1792DECAN   C817908   8.620  10.490  14.693 -0.3779 -0.3527  0.0885
 1792DECAN   C917909   8.639  10.456  14.544  0.4126 -0.2196  0.1524
 1792DECAN  C1017910   8.730  10.336  14.511  0.6211  0.0585 -0.2812
 1793DECAN   C117911   6.573   2.502  14.018  0.8972 -0.6657 -0.1200
 1793DECAN   C217912   6.458   2.556  14.106  0.7188 -0.4223 -0.5020
 1793DECAN   C317913   6.316   2.508  14.070  0.6413 -0.1668 -0.5373
 1793DECAN   C417914   6.299   2.358  14.097  0.4110 -0.2170 -0.9542
 1793DECAN   C517915   6.155   2.309  14.070  0.0689  0.4036 -0.2690
 1793DECAN   C617916   6.125   2.169  14.127 -1.2368  0.6376 -0.3710
 1793DECAN   C717917   6.095   2.165  14.278  0.2160 -0.0035 -0.0894
 1793DECAN   C817918   6.063   2.023  14.328 -0.1268  0.1048 -0.0032
 1793DECAN   C917919   6.043   2.025  14.481 -0.9145  0.0821 -0.0990
 1793DECAN  C1017920   6.004   1.890  14.543  0.8336 -0.5362 -0.2769
 1794DECAN   C117921   6.617  11.202   7.454 -0.0897  0.5274 -0.4047
 1794DECAN   C217922   6.683  11.130   7.573 -0.5419  0.4732 -0.1846
 1794DECAN   C317923   6.673  11.203   7.708  0.2959 -0.0332  0.1651
 1794DECAN   C417924   6.758   0.087   7.720  0.8031 -0.3388 -0.1626
 1794DECAN   C517925   6.748   0.144   7.863  0.1866 -0.5901 -0.1021
 1794DECAN   C617926   6.828   0.270   7.900 -0.4153 -0.1839 -0.1704
 1794DECAN   C717927   6.771   0.397   7.833  0.3001  0.1936 -0.0752
 1794DECAN   C817928   6.839   0.526   7.883 -0.0806  0.1928  0.4441
 1794DECAN   C917929   6.992   0.514   7.894 -0.1040 -0.1439  0.4223
 1794DECAN  C1017930   7.046   0.573   8.025  0.3168  0.3609  0.0289
 1795DECAN   C117931   4.355   2.076   5.443 -0.6492  0.9421 -0.3153
 1795DECAN   C217932   4.450   2.190   5.484  0.2165  0.3093 -0.5362
 1795DECAN   C317933   4.599   2.151   5.495  0.1776  0.3570  0.1816
 1795DECAN   C417934   4.689   2.273   5.523 -0.0198  0.5250  0.0900
 1795DECAN   C517935   4.640   2.364   5.637  0.2875  0.8033  0.0022
 1795DECAN   C617936   4.737   2.477   5.675  0.5429  0.4890  0.3000
 1795DECAN   C717937   4.679   2.535   5.806  0.3751 -0.3334  0.5968
 1795DECAN   C817938   4.569   2.643   5.796  0.0518 -0.7118 -0.0086
 1795DECAN   C917939   4.499   2.655   5.933  0.0382 -0.0395 -0.0701
 1795DECAN  C1017940   4.595   2.699   6.044  0.1365 -0.0157 -0.1648
 1796DECAN   C117941   8.998   0.402   8.679  0.6185  0.1557  0.4891
 1796DECAN   C217942   9.058   0.271   8.734 -0.1716 -0.3206  0.2351
 1796DECAN   C317943   8.995   0.146   8.670  0.2806 -0.3350 -0.1880
 1796DECAN   C417944   9.068   0.025   8.732  0.1852 -0.1250  0.3424
 1796DECAN   C517945   9.220   0.047   8.733  0.1406  0.1779  0.5978
 1796DECAN   C617946   9.302  11.180   8.802 -0.2195 -0.4662  0.0076
 1796DECAN   C717947   9.450  11.224   8.812 -0.3923  0.1441 -0.0794
 1796DECAN   C817948   9.539  11.103   8.844  0.6632  0.9488  0.0821
 1796DECAN   C917949   9.514  11.035   8.980  0.0493 -0.0542 -0.5258
 1796DECAN  C1017950   9.598  10.908   9.003  0.1696  0.0362 -0.4682
 1797DECAN   C117951   8.741  11.241   4.987 -0.0966 -0.5894 -0.3833
 1797DECAN   C217952   8.755  11.109   5.065  0.0721 -0.4208 -0.1234
 1797DECAN   C317953   8.681  11.109   5.200  0.7294  0.2934  0.2437
 1797DECAN   C417954   8.715  10.991   5.294 -0.0636  0.1147  0.3163
 1797DECAN   C517955   8.855  10.983   5.359  0.4912  0.6647 -0.7698
 1797DECAN   C617956   8.875  11.091   5.467 -0.1734 -0.0181  0.0488
 1797DECAN   C717957   8.983  11.072   5.576 -0.2291  0.2138  0.1448
 1797DECAN   C817958   8.985  11.167   5.697  0.0350  0.1331  0.2050
 1797DECAN   C917959   9.114  11.149   5.779  0.3917  0.2540 -0.3253
 1797DECAN  C1017960   9.152  11.234   5.902 -0.2011  0.7168 -0.4599
 1798DECAN   C117961   4.267   8.197  12.418  0.5313  0.1529  0.0977
 1798DECAN   C217962   4.378   8.161  12.519  0.5125  0.0155  0.0701
 1798DECAN   C317963   4.466   8.041  12.478  0.0133 -0.2726 -0.1639
 1798DECAN   C417964   4.374   7.918  12.469 -0.4896  0.0870 -0.0358
 1798DECAN   C517965   4.421   7.795  12.388  0.4732  0.6781 -0.3969
 1798DECAN   C617966   4.305   7.693  12.386  0.6007  0.5218  0.0309
 1798DECAN   C717967   4.348   7.561  12.321  0.2467  0.5738 -0.3135
 1798DECAN   C817968   4.257   7.440  12.348  0.3350  0.7445  0.8098
 1798DECAN   C917969   4.315   7.301  12.317 -0.1678  0.6312  0.3533
 1798DECAN  C1017970   4.225   7.180  12.347 -0.5220  0.9082  0.4149
 1799DECAN   C117971   8.144   1.762  13.990 -0.2612 -0.1955  0.3162
 1799DECAN   C217972   8.142   1.648  14.093 -0.2652 -0.0901  0.4329
 1799DECAN   C317973   7.995   1.613  14.122 -0.0927 -0.3252  1.0517
 1799DECAN   C417974   7.918   1.734  14.178  0.5553  0.3631  0.4674
 1799DECAN   C517975   7.784   1.686  14.237  0.5059 -0.4094 -0.2439
 1799DECAN   C617976   7.809   1.575  14.341  0.1689 -0.2592  0.0009
 1799DECAN   C717977   7.690   1.536  14.430  0.1532 -0.3285 -0.0504
 1799DECAN   C817978   7.581   1.462  14.351 -0.0969  0.0810 -0.0915
 1799DECAN   C917979   7.634   1.326  14.301 -0.1014 -0.0040  0.1337
 1799DECAN  C1017980   7.523   1.256  14.221 -0.0568  0.3108 -0.2027
 1800DECAN   C117981   7.835   1.109   6.320  0.0711  0.1399  1.0932
 1800DECAN   C217982   7.781   0.966   6.341  0.0020  0.0688  0.4290
 1800DECAN   C317983   7.631   0.940   6.361  0.0237 -0.3225  0.0980
 1800DECAN   C417984   7.600   0.805   6.429 -0.7601 -0.5325 -0.6670
 1800DECAN   C517985   7.462   0.808   6.497 -0.2493 -0.9669  0.4089
 1800DECAN   C617986   7.370   0.741   6.393 -0.1661 -0.0315 -0.2760
 1800DECAN   C717987   7.242   0.679   6.452  0.2864 -0.0925  0.6594
 1800DECAN   C817988   7.171   0.570   6.370 -0.6612  0.6186  0.5094
 1800DECAN   C917989   7.021   0.556   6.400 -0.6290 -0.5237  0.1895
 1800DECAN  C1017990   6.939   0.460   6.311 -0.6694 -0.0368 -0.2996
 1801DECAN   C117991   9.951   1.278  12.737 -0.2455  0.1356 -0.8140
 1801DECAN   C217992  10.022   1.400  12.676  0.0759  0.4395  0.1493
 1801DECAN   C317993  10.155   1.345  12.621 -0.1784 -0.1465  0.1168
 1801DECAN   C417994  10.232   1.451  12.541 -0.1839 -0.2798 -0.0690
 1801DECAN   C517995  10.346   1.524  12.615 -0.0004 -0.4912 -0.1432
 1801DECAN   C617996  10.450   1.596  12.527 -0.0020  0.0276  0.2735
 1801DECAN   C717997  10.375   1.723  12.484  0.2567 -0.0233 -0.3288
 1801DECAN   C817998  10.277   1.798  12.576  0.3065  0.2698 -0.5127
 1801DECAN   C917999  10.177   1.890  12.504 -0.4473  0.0517  0.2410
 1801DECAN  C1018000  10.069   1.942  12.600 -0.3165 -0.1472  0.4957
 1802DECAN   C118001   2.734   4.033  12.029 -0.8684 -0.3556  0.2860
 1802DECAN   C218002   2.630   4.137  12.072 -0.5749  0.0368  0.0645
 1802DECAN   C318003   2.534   4.184  11.961 -0.1877  0.3273 -0.1506
 1802DECAN   C418004   2.487   4.068  11.872  0.5977 -0.0552 -0.0720
 1802DECAN   C518005   2.456   4.121  11.731 -0.0114 -0.1377  0.0259
 1802DECAN   C618006   2.564   4.226  11.696  0.0184 -0.4643 -0.8865
 1802DECAN   C718007   2.550   4.304  11.564 -0.3458  0.0840 -0.5248
 1802DECAN   C818008   2.642   4.428  11.563 -0.0938 -0.1029 -0.3173
 1802DECAN   C918009   2.694   4.463  11.423 -0.0214  0.2489 -0.2046
 1802DECAN  C1018010   2.579   4.436  11.323 -0.2291  0.3391  0.0098
 1803DECAN   C118011   7.003   0.970   4.262  0.8424  0.6401 -0.6282
 1803DECAN   C218012   6.965   0.916   4.122  0.2023 -0.2001 -0.1468
 1803DECAN   C318013   7.010   1.027   4.025 -0.1019 -0.5786 -0.7257
 1803DECAN   C418014   6.935   1.159   4.055 -0.3118 -0.7627 -0.4411
 1803DECAN   C518015   7.006   1.280   3.993 -0.8421 -0.0253  0.3742
 1803DECAN   C618016   6.938   1.406   4.051 -0.1069  0.4152  0.2808
 1803DECAN   C718017   7.010   1.537   4.012  0.2297  0.1404 -0.0377
 1803DECAN   C818018   6.926   1.660   4.053  0.1948  0.1227 -0.0554
 1803DECAN   C918019   6.975   1.791   3.988  0.6280 -0.0156 -0.0153
 1803DECAN  C1018020   6.895   1.919   4.021  0.3982 -0.0612 -0.3935
 1804DECAN   C118021   7.683   9.509   6.677 -0.3970 -0.3529  0.2928
 1804DECAN   C218022   7.716   9.363   6.642  0.3587 -0.1358  0.0961
 1804DECAN   C318023   7.748   9.251   6.742 -0.8204  0.1681  0.8301
 1804DECAN   C418024   7.783   9.113   6.684 -0.4805  0.6372 -0.1009
 1804DECAN   C518025   7.912   9.131   6.601 -0.1852 -0.1727  0.1685
 1804DECAN   C618026   7.956   8.996   6.544 -0.4214 -0.2422  0.1500
 1804DECAN   C718027   8.098   8.988   6.485 -0.6144 -0.4305 -0.2931
 1804DECAN   C818028   8.157   8.846   6.480 -0.0085 -0.1916 -0.0421
 1804DECAN   C918029   8.137   8.769   6.612  0.2487 -0.0935  0.0564
 1804DECAN  C1018030   8.254   8.785   6.710 -0.0526  0.2825  0.3574
 1805DECAN   C118031   2.406   3.293  11.230  0.0332 -0.2388  0.1489
 1805DECAN   C218032   2.556   3.263  11.246  0.0967  0.3377  0.7009
 1805DECAN   C318033   2.605   3.191  11.373  0.2204  0.4971  0.7428
 1805DECAN   C418034   2.749   3.138  11.355 -0.1315 -0.1011 -0.3784
 1805DECAN   C518035   2.787   3.034  11.462  0.1256  0.4989  0.1162
 1805DECAN   C618036   2.788   3.092  11.605 -0.4585  0.2282  0.2317
 1805DECAN   C718037   2.781   2.983  11.714 -0.0008  0.1569  0.1946
 1805DECAN   C818038   2.785   3.050  11.853 -0.1190  0.6532 -0.0390
 1805DECAN   C918039   2.757   2.960  11.975  0.0299  0.5577 -0.0753
 1805DECAN  C1018040   2.799   3.020  12.110  1.2335  0.1676 -0.2578
 1806DECAN   C118041   9.517   8.201   6.343 -0.0486  0.1934  0.1781
 1806DECAN   C218042   9.420   8.235   6.229 -0.0798  0.1104  0.1809
 1806DECAN   C318043   9.274   8.245   6.275  0.0311  0.5037  0.4560
 1806DECAN   C418044   9.213   8.104   6.288 -0.0108  0.5119  0.3504
 1806DECAN   C518045   9.064   8.089   6.328  0.0935 -0.2537  0.4813
 1806DECAN   C618046   9.001   7.957   6.281 -0.5446  0.1793  0.1044
 1806DECAN   C718047   9.060   7.835   6.354 -0.0661  0.4682  0.2042
 1806DECAN   C818048   9.021   7.813   6.502 -0.0854  0.0595  0.1409
 1806DECAN   C918049   9.034   7.668   6.552 -0.7747 -0.2027 -0.4214
 1806DECAN  C1018050   8.943   7.574   6.472  0.1958 -1.4868 -0.0442
 1807DECAN   C118051   7.947   7.597   5.047  0.6157  0.1642  0.5179
 1807DECAN   C218052   7.936   7.741   4.993  0.4000 -0.0972 -0.1406
 1807DECAN   C318053   8.061   7.816   4.944  0.8071 -0.4440  0.3572
 1807DECAN   C418054   8.038   7.968   4.936  0.3555 -0.5435 -0.2842
 1807DECAN   C518055   8.147   8.056   4.871  0.2013 -0.1842 -0.0632
 1807DECAN   C618056   8.130   8.208   4.861 -0.0521 -0.1951  0.1601
 1807DECAN   C718057   8.090   8.272   4.995 -0.3076  0.1716 -0.0860
 1807DECAN   C818058   8.080   8.425   4.981  0.2228  0.2131 -0.0410
 1807DECAN   C918059   7.988   8.470   4.866 -0.3710 -0.3958  0.1901
 1807DECAN  C1018060   8.002   8.617   4.824 -0.1778 -0.5900 -0.4441
 1808DECAN   C118061   3.784   6.466   4.339 -0.4445  0.3686 -0.2661
 1808DECAN   C218062   3.731   6.582   4.424  0.0291  0.1944  0.2794
 1808DECAN   C318063   3.641   6.686   4.354  0.7126  0.3984 -0.3025
 1808DECAN   C418064   3.602   6.797   4.454  0.3581  0.0925 -0.0968
 1808DECAN   C518065   3.502   6.902   4.402  0.4425  0.3614  0.2819
 1808DECAN   C618066   3.555   6.986   4.284 -0.1523 -0.0624 -0.2909
 1808DECAN   C718067   3.460   7.098   4.239 -0.2817 -0.3140 -0.6534
 1808DECAN   C818068   3.542   7.227   4.220 -0.1811 -0.2102  0.4274
 1808DECAN   C918069   3.653   7.215   4.114 -0.9286  0.0206 -0.3847
 1808DECAN  C1018070   3.614   7.247   3.968 -0.1623  0.2596 -0.5424
 1809DECAN   C118071   8.749   9.881  14.712 -0.3077 -0.2704 -0.2451
 1809DECAN   C218072   8.797  10.020  14.759 -0.4939 -0.2300 -0.1749
 1809DECAN   C318073   8.693  10.075  14.858  0.1866  0.5576  0.1217
 1809DECAN   C418074   8.562  10.090  14.777  0.0720 -0.9293 -0.0089
 1809DECAN   C518075   8.449  10.109  14.880 -0.1273 -0.3728 -0.3303
 1809DECAN   C618076   8.310  10.148  14.825 -0.0278 -0.1764 -0.4470
 1809DECAN   C718077   8.315  10.285  14.754 -0.3245 -0.1128 -0.3485
 1809DECAN   C818078   8.187  10.315  14.674 -0.1703 -0.3081 -0.6693
 1809DECAN   C918079   8.189  10.459  14.619 -0.3921  0.1973  0.6011
 1809DECAN  C1018080   8.066  10.501  14.536  0.3048  0.7895 -0.1499
 1810DECAN   C118081   6.340  11.238  10.437  0.0424 -0.4917  0.1794
 1810DECAN   C218082   6.362  11.086  10.436 -0.0144 -0.4978 -0.1011
 1810DECAN   C318083   6.239  10.999  10.471 -0.5312  0.3275  0.1524
 1810DECAN   C418084   6.264  10.858  10.526 -0.2063  0.1797 -0.3698
 1810DECAN   C518085   6.137  10.803  10.595  0.1173  0.3924  0.4089
 1810DECAN   C618086   6.139  10.654  10.633 -0.4480  0.3323  0.2257
 1810DECAN   C718087   6.041  10.624  10.747 -0.5355  0.0882  0.0854
 1810DECAN   C818088   6.061  10.487  10.815  0.2458  0.1421 -0.0359
 1810DECAN   C918089   5.948  10.460  10.916  0.1170 -0.3918 -0.3178
 1810DECAN  C1018090   5.955  10.326  10.991  0.1619 -0.1291  0.1471
 1811DECAN   C118091  10.798   4.856  12.148  0.1846  0.2975  0.8458
 1811DECAN   C218092  10.902   4.906  12.045  0.0181 -0.0852  0.4853
 1811DECAN   C318093  10.840   5.008  11.949 -0.1958 -0.1471  0.5571
 1811DECAN   C418094  10.700   4.962  11.902 -0.1410  0.6303 -0.4075
 1811DECAN   C518095  10.649   5.028  11.773 -0.2052  0.3531 -0.5224
 1811DECAN   C618096  10.511   4.969  11.739 -0.1334 -0.0339 -0.1516
 1811DECAN   C718097  10.422   5.038  11.634 -0.1294  0.2521  0.0319
 1811DECAN   C818098  10.279   4.991  11.602 -0.1867  0.2420  0.2985
 1811DECAN   C918099  10.201   4.999  11.735 -0.1680 -0.1272  0.3338
 1811DECAN  C1018100  10.167   5.147  11.764 -0.1068 -0.0923  0.2281
 1812DECAN   C118101   4.962   3.065   5.595 -0.3982 -0.2672  0.1438
 1812DECAN   C218102   4.935   2.924   5.538 -0.0573 -0.4160  0.3486
 1812DECAN   C318103   5.026   2.898   5.416 -0.0979 -0.2062  0.2713
 1812DECAN   C418104   5.021   2.758   5.351 -0.2088 -0.0979  0.0442
 1812DECAN   C518105   5.136   2.745   5.250  0.0731  0.1995  0.3235
 1812DECAN   C618106   5.278   2.733   5.308  0.0769  0.2834  0.3318
 1812DECAN   C718107   5.286   2.613   5.404 -0.3401 -0.1205 -0.1378
 1812DECAN   C818108   5.261   2.486   5.321  0.0452  0.1393 -0.6538
 1812DECAN   C918109   5.392   2.416   5.279  0.0311 -0.6861  0.6052
 1812DECAN  C1018110   5.397   2.285   5.198  0.3851 -0.0998 -0.3427
 1813DECAN   C118111   2.566   4.145  10.034  0.3121 -0.2506  0.6875
 1813DECAN   C218112   2.549   4.298  10.032  0.0641 -0.2819 -0.3778
 1813DECAN   C318113   2.519   4.352   9.891 -0.8902 -0.7036 -0.3436
 1813DECAN   C418114   2.492   4.504   9.899  0.2056 -0.5190 -0.0311
 1813DECAN   C518115   2.382   4.534  10.002  0.5903  0.0948  0.2043
 1813DECAN   C618116   2.426   4.527  10.149 -0.4616 -0.3189  0.5082
 1813DECAN   C718117   2.303   4.568  10.233 -0.5419  0.1752  0.1558
 1813DECAN   C818118   2.192   4.462  10.229 -0.4560  0.1015 -0.3016
 1813DECAN   C918119   2.230   4.328  10.296 -0.4986 -0.1195 -0.7171
 1813DECAN  C1018120   2.104   4.243  10.322 -0.0661 -0.5539 -0.0300
 1814DECAN   C118121   9.497   8.475   4.876 -0.1482  0.1274  0.1073
 1814DECAN   C218122   9.506   8.457   4.723  0.1619 -0.2669  0.1699
 1814DECAN   C318123   9.543   8.316   4.674  1.0529 -0.0980  0.3437
 1814DECAN   C418124   9.544   8.298   4.521 -0.9807  0.0573  0.2836
 1814DECAN   C518125   9.591   8.158   4.476  0.0755  0.4647  0.0777
 1814DECAN   C618126   9.585   8.115   4.328  0.4934 -0.1078  0.2230
 1814DECAN   C718127   9.449   8.118   4.255  0.7629  0.5732 -0.2635
 1814DECAN   C818128   9.465   8.082   4.107 -0.3991 -0.1314 -0.2329
 1814DECAN   C918129   9.333   8.109   4.032 -0.3306  0.6676 -0.0786
 1814DECAN  C1018130   9.317   8.037   3.897  0.5775  0.2323  0.0398
 1815DECAN   C118131   7.011   4.818   6.453  0.2420 -0.3946 -0.3050
 1815DECAN   C218132   7.103   4.713   6.516  0.8627  0.1523 -0.2869
 1815DECAN   C318133   7.165   4.750   6.652 -0.2822  0.0950  0.2546
 1815DECAN   C418134   7.304   4.693   6.684 -0.1310  0.2519 -0.1298
 1815DECAN   C518135   7.316   4.566   6.770  0.7942  0.2865 -0.1903
 1815DECAN   C618136   7.451   4.493   6.782  0.3901 -0.5727 -0.7115
 1815DECAN   C718137   7.431   4.348   6.828 -0.4650 -0.1998  0.1203
 1815DECAN   C818138   7.413   4.340   6.981 -0.3609 -0.3771  0.1237
 1815DECAN   C918139   7.543   4.375   7.056  0.2330 -0.6355 -0.7740
 1815DECAN  C1018140   7.543   4.396   7.208 -0.1312  0.1618 -0.8767
 1816DECAN   C118141   1.906   0.785  10.060  0.4037 -0.0806 -0.3337
 1816DECAN   C218142   1.896   0.679   9.949  0.2617  0.1056 -0.4984
 1816DECAN   C318143   1.877   0.718   9.801  0.0533 -0.2716 -0.5730
 1816DECAN   C418144   1.825   0.616   9.698 -0.5417 -0.5274 -0.0231
 1816DECAN   C518145   1.753   0.679   9.577 -0.2943  0.0087  0.1070
 1816DECAN   C618146   1.669   0.578   9.496  0.0789  0.3296 -0.6917
 1816DECAN   C718147   1.626   0.636   9.360 -0.5322  0.7476 -0.3224
 1816DECAN   C818148   1.510   0.572   9.280 -0.3243  0.2447 -0.2269
 1816DECAN   C918149   1.497   0.632   9.139 -0.3573  0.0907 -0.2891
 1816DECAN  C1018150   1.444   0.527   9.039  0.2946 -0.3575 -0.1673
 1817DECAN   C118151   2.369   7.783  14.382  0.2991 -0.1109 -0.2321
 1817DECAN   C218152   2.279   7.661  14.355  0.2708 -0.0894 -0.2354
 1817DECAN   C318153   2.248   7.640  14.206 -0.6187 -0.1386 -0.0488
 1817DECAN   C418154   2.140   7.733  14.149 -0.6183 -0.0216  0.1409
 1817DECAN   C518155   2.182   7.881  14.140  0.2135 -0.3040 -0.8894
 1817DECAN   C618156   2.287   7.920  14.035  0.4869 -0.4534 -0.6715
 1817DECAN   C718157   2.355   8.055  14.066 -0.3731 -0.1266 -0.1774
 1817DECAN   C818158   2.481   8.087  13.984 -0.4468  0.4060 -0.0869
 1817DECAN   C918159   2.575   8.187  14.053 -0.7078  0.3169  0.4025
 1817DECAN  C1018160   2.604   8.161  14.202  0.4996 -0.0478  0.1153
 1818DECAN   C118161   4.750   3.746   7.774 -0.4352  0.7998  0.4854
 1818DECAN   C218162   4.875   3.831   7.799 -0.2967  1.0159 -0.8647
 1818DECAN   C318163   4.871   3.898   7.938  0.3108 -0.2397 -0.2264
 1818DECAN   C418164   4.976   4.010   7.945 -0.3884  0.3799  0.4599
 1818DECAN   C518165   5.097   3.925   7.986 -0.3354  0.0804 -0.2932
 1818DECAN   C618166   5.173   3.850   7.876 -0.0590  0.0140 -0.0590
 1818DECAN   C718167   5.299   3.772   7.918 -0.2205 -0.1674  0.0919
 1818DECAN   C818168   5.362   3.684   7.808 -0.3048 -0.4936  0.3008
 1818DECAN   C918169   5.266   3.582   7.745 -0.5136  0.0206 -0.2299
 1818DECAN  C1018170   5.355   3.498   7.652  0.4056 -0.0902  0.7223
 1819DECAN   C118171   2.126   5.170   7.450  0.0400 -0.1460  0.6498
 1819DECAN   C218172   2.245   5.072   7.443 -0.1094 -0.2965  0.1706
 1819DECAN   C318173   2.297   5.019   7.308  0.4390 -0.0411  0.2780
 1819DECAN   C418174   2.390   4.898   7.324 -0.2329 -0.6013 -0.0089
 1819DECAN   C518175   2.321   4.765   7.361 -0.2183 -0.6217 -0.0551
 1819DECAN   C618176   2.195   4.731   7.280 -0.1656 -0.0078 -0.3976
 1819DECAN   C718177   2.125   4.597   7.311  0.6744 -0.3964 -0.1343
 1819DECAN   C818178   2.072   4.582   7.455  0.6283 -0.5055 -0.1624
 1819DECAN   C918179   2.168   4.616   7.570  0.2733 -0.0650  0.0092
 1819DECAN  C1018180   2.108   4.606   7.712  0.1576  0.0183 -0.0347
 1820DECAN   C118181   7.784   0.386   6.260  0.3033 -0.0147  0.0072
 1820DECAN   C218182   7.798   0.529   6.206  0.4798  0.0392  0.1910
 1820DECAN   C318183   7.796   0.533   6.052  0.1764  0.0719  0.1953
 1820DECAN   C418184   7.762   0.672   5.995  0.2339  0.2366  0.5578
 1820DECAN   C518185   7.792   0.682   5.844  0.0403  0.6307  0.5426
 1820DECAN   C618186   7.767   0.813   5.768 -0.2893  0.2155 -0.0689
 1820DECAN   C718187   7.829   0.834   5.628 -0.1556 -0.3781 -0.0990
 1820DECAN   C818188   7.981   0.853   5.622 -0.1586 -0.3801 -0.1799
 1820DECAN   C918189   8.024   0.901   5.482  0.6746 -0.3561  0.0739
 1820DECAN  C1018190   8.168   0.945   5.449  0.3908  0.8105  0.3790
 1821DECAN   C118191   2.205   7.179   7.494  0.5733  0.1743  0.5517
 1821DECAN   C218192   2.101   7.118   7.589 -0.0622  0.2219 -0.1036
 1821DECAN   C318193   2.042   6.982   7.545  0.2713 -0.0343  0.2331
 1821DECAN   C418194   1.945   6.917   7.644  0.1201 -0.2670 -0.0641
 1821DECAN   C518195   1.913   6.772   7.603  0.4212 -0.0136 -1.2238
 1821DECAN   C618196   1.836   6.763   7.470 -0.7595  0.0326 -0.5598
 1821DECAN   C718197   1.824   6.621   7.412 -0.3436 -0.3583  0.3031
 1821DECAN   C818198   1.712   6.613   7.307 -0.2134  0.2754  0.1132
 1821DECAN   C918199   1.709   6.472   7.246 -0.2098  0.2709  0.1242
 1821DECAN  C1018200   1.608   6.443   7.134 -0.3335  0.4273  0.1949
 1822DECAN   C118201   7.005   9.345  14.115 -0.2816  0.0180 -0.2044
 1822DECAN   C218202   7.098   9.270  14.212  0.0446  0.2066 -0.3702
 1822DECAN   C318203   7.052   9.127  14.242 -0.0937  0.2842 -0.2052
 1822DECAN   C418204   7.134   9.048  14.346 -0.2119  0.3271 -0.0805
 1822DECAN   C518205   7.074   8.913  14.388  0.1935  0.2223  0.1699
 1822DECAN   C618206   7.158   8.829  14.485 -0.1441 -0.2446  0.0627
 1822DECAN   C718207   7.169   8.875  14.631 -0.1280 -0.0225 -0.0092
 1822DECAN   C818208   7.194   8.773  14.744 -0.4022 -0.3506 -0.2448
 1822DECAN   C918209   7.207   8.834  14.884  0.3354 -0.4079 -0.2879
 1822DECAN  C1018210   7.084   8.904  14.944  0.3056 -0.2056 -0.5855
 1823DECAN   C118211   9.075   2.818   6.994 -0.3911 -0.3316  0.5184
 1823DECAN   C218212   9.056   2.795   7.145  0.3007 -0.4977  0.5816
 1823DECAN   C318213   9.045   2.924   7.228 -0.0208 -0.1164 -0.0447
 1823DECAN   C418214   9.176   3.004   7.240  0.2091 -0.5920  0.7309
 1823DECAN   C518215   9.165   3.146   7.298  0.3433 -0.1775 -0.2487
 1823DECAN   C618216   9.294   3.216   7.344  0.2273  0.1973 -0.4813
 1823DECAN   C718217   9.280   3.369   7.354 -0.1264  0.1535 -0.2862
 1823DECAN   C818218   9.165   3.417   7.444 -0.4077  0.0624 -0.5926
 1823DECAN   C918219   9.165   3.571   7.453  0.1860  0.0371 -0.0602
 1823DECAN  C1018220   9.185   3.634   7.314  0.4485 -0.1498 -0.1089
 1824DECAN   C118221   3.192   0.345  13.155  0.5770 -0.1073  0.2964
 1824DECAN   C218222   3.300   0.371  13.048 -0.0720  0.6393 -0.1828
 1824DECAN   C318223   3.254   0.315  12.912  0.1115  0.3308 -0.1172
 1824DECAN   C418224   3.343   0.374  12.801  0.2292  0.1452 -0.1221
 1824DECAN   C518225   3.477   0.299  12.799 -0.0852 -0.4201 -0.4888
 1824DECAN   C618226   3.565   0.363  12.908  0.0813 -0.1260 -0.7929
 1824DECAN   C718227   3.695   0.290  12.950 -0.2579 -0.2950 -0.0108
 1824DECAN   C818228   3.745   0.308  13.094  0.3917  0.1459 -0.2872
 1824DECAN   C918229   3.871   0.226  13.126  0.2019 -0.1587 -0.3167
 1824DECAN  C1018230   3.946   0.243  13.259 -0.3686 -0.3441  0.0278
 1825DECAN   C118231   7.364   3.694   4.235 -0.0750 -0.1534  0.1388
 1825DECAN   C218232   7.291   3.687   4.370 -0.0975 -0.2167  0.1236
 1825DECAN   C318233   7.262   3.538   4.395  0.4400 -0.2714  0.4434
 1825DECAN   C418234   7.206   3.498   4.533  0.2357 -0.1065  0.4102
 1825DECAN   C518235   7.159   3.352   4.541 -0.4036  0.0761  0.0037
 1825DECAN   C618236   7.042   3.328   4.443 -0.1598  0.0470 -0.2856
 1825DECAN   C718237   6.988   3.184   4.430 -0.6653  0.1803  0.2907
 1825DECAN   C818238   6.890   3.165   4.313  0.1319 -0.0835 -0.3408
 1825DECAN   C918239   6.751   3.220   4.351  0.1809  0.0189 -0.3118
 1825DECAN  C1018240   6.666   3.162   4.237 -0.0134 -0.6739  0.1804
 1826DECAN   C118241   4.201   7.875  13.853  0.5376 -0.0062  0.2300
 1826DECAN   C218242   4.051   7.863  13.820  0.5629  0.0824  0.0829
 1826DECAN   C318243   4.033   7.951  13.695  0.3741 -0.2072 -0.0944
 1826DECAN   C418244   3.891   7.933  13.637  0.3499  0.1434 -0.1455
 1826DECAN   C518245   3.874   7.817  13.538  0.1028 -0.1974  0.2929
 1826DECAN   C618246   3.983   7.822  13.429 -0.1822  0.2331  0.0257
 1826DECAN   C718247   3.977   7.736  13.301 -0.0986  0.7318 -0.3158
 1826DECAN   C818248   4.069   7.780  13.185  0.4530  0.1597 -0.1037
 1826DECAN   C918249   4.052   7.707  13.051  0.1452 -0.2856  0.1728
 1826DECAN  C1018250   4.160   7.736  12.944 -0.0797  0.1021  0.0470
 1827DECAN   C118251   5.096   9.917   5.121 -0.2333  0.2785  0.1237
 1827DECAN   C218252   4.998  10.007   5.043  0.5667  0.3874 -0.7778
 1827DECAN   C318253   5.067  10.092   4.935  0.7479  0.3618 -0.6830
 1827DECAN   C418254   4.989  10.206   4.865  0.4942  0.5207 -0.1524
 1827DECAN   C518255   5.077  10.275   4.759  0.0253  0.3943 -0.6265
 1827DECAN   C618256   5.208  10.338   4.809 -0.0753  0.1435 -0.0487
 1827DECAN   C718257   5.318  10.235   4.844 -0.4107 -0.0564  0.4374
 1827DECAN   C818258   5.440  10.310   4.902 -0.1129 -0.3637  0.2063
 1827DECAN   C918259   5.578  10.243   4.915  0.2892  0.4542  0.2164
 1827DECAN  C1018260   5.652  10.196   4.788 -0.1918  0.4920 -0.0804
 1828DECAN   C118261   7.369   8.160   9.338 -0.3568 -0.1851  0.2332
 1828DECAN   C218262   7.290   8.104   9.217 -0.2280 -0.1171  0.1178
 1828DECAN   C318263   7.369   8.105   9.085  0.1661 -0.3353  0.3488
 1828DECAN   C418264   7.303   8.027   8.970 -0.0698 -0.5295  0.6140
 1828DECAN   C518265   7.233   7.894   9.002 -0.7811 -0.1527  0.6439
 1828DECAN   C618266   7.211   7.807   8.876 -0.1625  0.1593  0.3184
 1828DECAN   C718267   7.330   7.743   8.801 -0.0526  0.5347  0.1721
 1828DECAN   C818268   7.286   7.653   8.685 -0.1699 -0.2623  0.8259
 1828DECAN   C918269   7.163   7.571   8.728 -0.3779 -0.2646  0.2509
 1828DECAN  C1018270   7.109   7.472   8.623 -0.8764  0.8201 -0.5297
 1829DECAN   C118271   5.073   4.013   8.696 -0.0879  0.1027 -0.4618
 1829DECAN   C218272   5.148   4.101   8.594 -0.3496  0.2627 -0.5167
 1829DECAN   C318273   5.059   4.195   8.510 -1.2180 -0.1171 -0.0406
 1829DECAN   C418274   4.965   4.292   8.583 -0.7207  0.5020 -0.2193
 1829DECAN   C518275   4.979   4.439   8.538  0.5650  0.4942  0.1251
 1829DECAN   C618276   4.924   4.529   8.650  0.0609 -0.1185  0.3754
 1829DECAN   C718277   4.908   4.674   8.601 -0.4892 -0.2458  0.1688
 1829DECAN   C818278   4.865   4.774   8.711 -0.2288 -0.0403  0.0852
 1829DECAN   C918279   4.839   4.919   8.667 -0.7604 -0.0799  0.2658
 1829DECAN  C1018280   4.805   5.006   8.789 -0.3633 -0.7253  0.8465
 1830DECAN   C118281   7.251   5.031  13.022 -0.8675  0.1955 -0.8008
 1830DECAN   C218282   7.340   4.938  12.936 -0.1346 -0.0169  0.1700
 1830DECAN   C318283   7.308   4.940  12.786 -0.3278 -0.0561  0.2106
 1830DECAN   C418284   7.407   4.859  12.700 -0.0985  0.3239  0.1155
 1830DECAN   C518285   7.375   4.894  12.553 -0.1093 -0.1241  0.0082
 1830DECAN   C618286   7.505   4.925  12.476 -0.4654  0.3160 -0.4250
 1830DECAN   C718287   7.533   5.073  12.442  0.5412  0.2527  0.0801
 1830DECAN   C818288   7.681   5.096  12.408  0.6754  0.1029  0.5580
 1830DECAN   C918289   7.726   5.026  12.278  0.4386  0.4806  0.2731
 1830DECAN  C1018290   7.880   5.022  12.271  0.3956 -0.4418 -0.2376
 1831DECAN   C118291  10.225   9.539  13.600  0.1281  0.0740  0.7429
 1831DECAN   C218292  10.098   9.452  13.607  0.0476  0.1804  0.5840
 1831DECAN   C318293  10.120   9.300  13.605 -0.4876  0.1060 -0.2460
 1831DECAN   C418294   9.991   9.216  13.614 -0.6066  0.3564  0.4173
 1831DECAN   C518295  10.015   9.071  13.660  0.4403  0.3878  0.0032
 1831DECAN   C618296   9.966   9.036  13.802 -0.4060  0.2684 -0.3149
 1831DECAN   C718297  10.029   9.131  13.905 -0.7194 -0.0840  0.2082
 1831DECAN   C818298  10.033   9.066  14.045 -0.2852  0.0893  0.2766
 1831DECAN   C918299  10.102   9.148  14.155 -0.1798 -0.0762  0.3342
 1831DECAN  C1018300  10.029   9.279  14.190  0.0243  0.0204  0.4043
 1832DECAN   C118301   8.283   0.905   5.950  0.3070 -0.1125  0.0449
 1832DECAN   C218302   8.144   0.875   6.008  0.4119  0.4927  0.6269
 1832DECAN   C318303   8.149   0.758   6.108 -0.0493  0.6008  0.7823
 1832DECAN   C418304   8.230   0.776   6.238  0.4738  0.2404  0.5132
 1832DECAN   C518305   8.200   0.674   6.349 -0.0623 -0.2135 -0.0429
 1832DECAN   C618306   8.265   0.714   6.483  0.2786 -0.8461 -0.0145
 1832DECAN   C718307   8.417   0.735   6.485  0.2264 -0.2889 -0.9289
 1832DECAN   C818308   8.493   0.608   6.444  0.4823 -0.1040 -1.0286
 1832DECAN   C918309   8.645   0.618   6.471  0.2197  0.0972  0.4795
 1832DECAN  C1018310   8.743   0.506   6.431  0.0678  0.1583 -0.0823
 1833DECAN   C118311   8.824   4.973   8.585  0.0627 -0.1191  0.3090
 1833DECAN   C218312   8.697   4.947   8.501  0.0229  0.5492  0.1572
 1833DECAN   C318313   8.606   5.065   8.541 -0.5707  0.2518 -0.3010
 1833DECAN   C418314   8.604   5.108   8.689  0.0024  0.5538 -0.3792
 1833DECAN   C518315   8.522   5.014   8.779  1.8678 -0.0903  0.6982
 1833DECAN   C618316   8.513   5.061   8.925  0.1774  0.1724  0.5237
 1833DECAN   C718317   8.439   5.196   8.933  0.3563  0.2784  0.4013
 1833DECAN   C818318   8.422   5.261   9.072  0.6205  0.9544  0.1205
 1833DECAN   C918319   8.363   5.403   9.062 -0.1933  0.6573  0.5936
 1833DECAN  C1018320   8.213   5.401   9.029  0.0521 -0.3055 -0.5260
 1834DECAN   C118321   9.765   8.344   6.892 -0.5832 -0.2991  0.6956
 1834DECAN   C218322   9.632   8.269   6.906 -0.4944 -0.5944 -0.0242
 1834DECAN   C318323   9.497   8.334   6.871 -0.2250  0.3026  0.5723
 1834DECAN   C418324   9.505   8.419   6.743  0.0961 -0.3687  0.1439
 1834DECAN   C518325   9.396   8.528   6.735 -0.0841 -0.5242  0.4321
 1834DECAN   C618326   9.393   8.620   6.611 -0.2359 -0.2406  0.6480
 1834DECAN   C718327   9.310   8.750   6.618  0.2406  0.0783  0.4386
 1834DECAN   C818328   9.287   8.828   6.488 -0.8432  0.0382  0.5919
 1834DECAN   C918329   9.205   8.752   6.382 -0.0105  0.2051 -0.1944
 1834DECAN  C1018330   9.256   8.609   6.355  0.5301  0.2649  0.4680
 1835DECAN   C118331  10.800   7.473  11.220 -0.1012 -0.4043  0.2196
 1835DECAN   C218332  10.738   7.465  11.361 -0.1905  0.2965  0.2241
 1835DECAN   C318333  10.586   7.480  11.380 -0.3094 -0.3431 -0.1689
 1835DECAN   C418334  10.528   7.623  11.372  0.6952  0.0552 -0.4509
 1835DECAN   C518335  10.574   7.732  11.470  0.2473  0.1440 -0.3390
 1835DECAN   C618336  10.506   7.869  11.482 -0.0864 -0.0665  0.2064
 1835DECAN   C718337  10.357   7.857  11.520 -0.1206 -0.1379  0.0515
 1835DECAN   C818338  10.347   7.814  11.668 -0.1295 -0.0217  0.0862
 1835DECAN   C918339  10.200   7.824  11.714 -0.2290  0.0726 -0.2528
 1835DECAN  C1018340  10.105   7.734  11.633 -0.2305  0.0437 -0.2186
 1836DECAN   C118341   3.195   2.770  14.126  0.1843 -0.0965 -0.4063
 1836DECAN   C218342   3.125   2.762  13.989 -0.2033  0.3901 -0.2403
 1836DECAN   C318343   3.137   2.634  13.903  0.2713  0.2329  0.0542
 1836DECAN   C418344   3.059   2.647  13.771  0.0927  0.0784  0.1440
 1836DECAN   C518345   3.113   2.736  13.658 -0.1142 -0.1902 -0.1658
 1836DECAN   C618346   3.160   2.880  13.685  0.0309 -0.2874  0.0953
 1836DECAN   C718347   3.259   2.916  13.573 -0.5098  0.0803 -0.2651
 1836DECAN   C818348   3.312   3.060  13.586 -0.1629 -0.1062  0.4078
 1836DECAN   C918349   3.446   3.072  13.661 -0.0680 -0.1283  0.2421
 1836DECAN  C1018350   3.562   2.998  13.592  0.0802 -0.4545  0.8438
 1837DECAN   C118351   3.227   4.128   8.878 -0.1499  0.0948  0.3997
 1837DECAN   C218352   3.077   4.156   8.899 -0.1815 -0.0732  0.4010
 1837DECAN   C318353   3.053   4.306   8.920  0.9679  0.2517 -0.4711
 1837DECAN   C418354   3.108   4.354   9.056 -0.4550  0.1316  0.1748
 1837DECAN   C518355   3.068   4.497   9.094  0.3550  0.3913  0.0849
 1837DECAN   C618356   3.098   4.538   9.240 -0.0741 -0.6930  0.4937
 1837DECAN   C718357   3.242   4.520   9.290 -0.0061  0.0670  0.5829
 1837DECAN   C818358   3.276   4.373   9.315 -0.2938 -0.1047 -0.0031
 1837DECAN   C918359   3.420   4.368   9.371 -0.4529  0.0265  0.4257
 1837DECAN  C1018360   3.513   4.461   9.291  0.0819 -0.5821  0.3321
 1838DECAN   C118361   8.657   6.192   9.282 -0.0285 -0.1408  0.3749
 1838DECAN   C218362   8.739   6.299   9.208 -0.4215 -0.0656  0.0463
 1838DECAN   C318363   8.666   6.355   9.084  0.1795  0.2826 -0.1579
 1838DECAN   C418364   8.612   6.247   8.988  0.4319 -0.0096  0.0266
 1838DECAN   C518365   8.558   6.298   8.853 -0.2549 -0.4383  0.1378
 1838DECAN   C618366   8.448   6.404   8.871  0.2089  0.1350 -0.3633
 1838DECAN   C718367   8.490   6.531   8.948 -0.0380 -0.1844  0.3071
 1838DECAN   C818368   8.387   6.642   8.974  0.4412  0.4225 -0.3572
 1838DECAN   C918369   8.442   6.757   9.061  0.1925 -0.4090  0.9146
 1838DECAN  C1018370   8.339   6.869   9.086  0.0560 -0.2382 -0.3798
 1839DECAN   C118371   3.241   7.010   4.697 -0.5167 -0.4653  0.3397
 1839DECAN   C218372   3.276   7.116   4.591 -0.2569  0.0406  0.9236
 1839DECAN   C318373   3.216   7.257   4.610  0.2357  0.4076 -0.1869
 1839DECAN   C418374   3.229   7.363   4.499 -0.1046  0.6022 -0.0428
 1839DECAN   C518375   3.134   7.332   4.382 -0.3106 -0.2958  0.3551
 1839DECAN   C618376   2.987   7.358   4.416 -0.3460  0.2806 -0.2162
 1839DECAN   C718377   2.963   7.509   4.430  0.2198  0.2945  0.6505
 1839DECAN   C818378   2.997   7.594   4.307 -0.2403  0.1178  0.3982
 1839DECAN   C918379   2.997   7.744   4.340 -0.0265  0.2795 -0.3057
 1839DECAN  C1018380   2.866   7.815   4.379 -0.1927  0.0144 -0.3848
 1840DECAN   C118381   9.177   3.563   5.697 -1.1884 -0.1623  0.0681
 1840DECAN   C218382   9.121   3.539   5.838 -0.6888  0.1437  0.3193
 1840DECAN   C318383   9.186   3.425   5.919 -0.0651  0.3179  0.0718
 1840DECAN   C418384   9.112   3.391   6.049 -0.0891  0.7218  0.1662
 1840DECAN   C518385   9.202   3.302   6.138 -0.1095  0.1214 -0.4068
 1840DECAN   C618386   9.234   3.171   6.063 -0.1168 -0.3590  0.4206
 1840DECAN   C718387   9.122   3.074   6.023  0.1132 -0.4161 -0.0880
 1840DECAN   C818388   9.196   2.945   5.983  0.2859 -0.4000  0.1799
 1840DECAN   C918389   9.120   2.811   5.992 -0.2190 -0.1596 -0.4167
 1840DECAN  C1018390   8.972   2.801   5.952 -0.3089 -0.5159  0.0030
 1841DECAN   C118391   5.005   4.415   4.424  0.1064  0.2001 -0.0518
 1841DECAN   C218392   4.939   4.536   4.495 -0.1965 -0.2413  0.4283
 1841DECAN   C318393   4.788   4.557   4.475 -0.0599  0.4152  0.0451
 1841DECAN   C418394   4.728   4.676   4.551 -0.2765  0.2659  0.1103
 1841DECAN   C518395   4.825   4.796   4.553 -0.0284  0.0672 -0.0506
 1841DECAN   C618396   4.832   4.873   4.420  0.5105  0.0839 -0.0177
 1841DECAN   C718397   4.908   5.006   4.435  0.0783  0.3263  0.0436
 1841DECAN   C818398   4.951   5.065   4.299  0.5346 -0.1938 -0.0389
 1841DECAN   C918399   5.010   5.204   4.328  0.3529 -0.2271  0.4946
 1841DECAN  C1018400   5.048   5.279   4.199 -0.4281 -0.4648  0.1280
 1842DECAN   C118401   4.966   4.587  12.148 -0.0495  0.5545  0.5283
 1842DECAN   C218402   5.052   4.707  12.105  0.7538 -0.1260  0.1916
 1842DECAN   C318403   5.051   4.710  11.951  0.6642 -0.1270  0.1922
 1842DECAN   C418404   5.094   4.844  11.890 -1.0767  0.4503  0.1771
 1842DECAN   C518405   5.097   4.841  11.736 -0.0903  0.3879  0.1929
 1842DECAN   C618406   5.095   4.971  11.654  0.0462  0.2337 -0.0564
 1842DECAN   C718407   5.221   5.056  11.681  0.2121 -0.0605  0.1011
 1842DECAN   C818408   5.241   5.184  11.597  0.7662 -0.5531 -0.5270
 1842DECAN   C918409   5.365   5.262  11.643 -0.0146  0.3076  0.1694
 1842DECAN  C1018410   5.390   5.382  11.550 -0.5625  0.4145  0.1586
 1843DECAN   C118411   9.181   2.063   4.125  0.0276  0.1407  0.2881
 1843DECAN   C218412   9.093   1.975   4.216 -0.3250  0.1498 -0.0453
 1843DECAN   C318413   8.987   1.909   4.126  0.1941 -0.4843 -0.1996
 1843DECAN   C418414   8.888   2.006   4.057 -0.1318 -0.7451 -0.1013
 1843DECAN   C518415   8.797   2.071   4.162  0.3058 -0.7708  0.2933
 1843DECAN   C618416   8.673   2.133   4.096  0.6312 -0.6733 -0.2341
 1843DECAN   C718417   8.585   2.018   4.044  0.0983 -0.3544 -0.0539
 1843DECAN   C818418   8.530   1.918   4.148 -0.2251 -0.0789  0.0404
 1843DECAN   C918419   8.447   1.803   4.089  0.0514 -0.3412  0.1573
 1843DECAN  C1018420   8.363   1.733   4.198 -0.1072  0.5946  0.6538
 1844DECAN   C118421   4.800   7.033   5.848 -0.1928 -0.2334  0.1953
 1844DECAN   C218422   4.693   6.979   5.945 -0.3113  0.1041  0.2568
 1844DECAN   C318423   4.680   7.062   6.073  0.6330  0.6141  0.0287
 1844DECAN   C418424   4.548   7.036   6.148  0.4207  0.6469 -0.3323
 1844DECAN   C518425   4.512   7.133   6.262 -0.2578 -0.0703  0.0705
 1844DECAN   C618426   4.385   7.078   6.329 -0.3054 -0.2267 -0.1455
 1844DECAN   C718427   4.334   7.160   6.449  0.2122  0.3694 -0.3306
 1844DECAN   C818428   4.414   7.152   6.580 -0.1942 -0.2682 -0.1169
 1844DECAN   C918429   4.565   7.181   6.570 -0.1748 -0.0691  0.6367
 1844DECAN  C1018430   4.654   7.101   6.666  0.3656 -0.6563 -0.3378
 1845DECAN   C118431   4.599   8.569   5.615  0.2762  0.1101 -0.2791
 1845DECAN   C218432   4.512   8.618   5.732  0.3014 -0.3899 -0.0511
 1845DECAN   C318433   4.584   8.658   5.863 -0.3227  0.1142  0.1385
 1845DECAN   C418434   4.482   8.686   5.975 -0.2984 -0.1561  0.2274
 1845DECAN   C518435   4.538   8.749   6.104 -0.4165  0.3126  0.0520
 1845DECAN   C618436   4.614   8.882   6.094 -0.4393  0.3057 -0.2088
 1845DECAN   C718437   4.705   8.910   6.216  0.0619 -0.5266 -0.3836
 1845DECAN   C818438   4.771   9.049   6.206 -0.5516 -0.2419 -0.5406
 1845DECAN   C918439   4.880   9.082   6.102  0.0832 -0.3098  0.0991
 1845DECAN  C1018440   4.937   9.224   6.109  0.0119 -0.2497 -0.5409
 1846DECAN   C118441   3.351   2.815  12.511  0.5808 -1.0136 -0.2306
 1846DECAN   C218442   3.414   2.883  12.388 -0.1098  0.4360  0.2039
 1846DECAN   C318443   3.546   2.955  12.425 -0.2590  0.5143  0.5943
 1846DECAN   C418444   3.629   2.992  12.301 -0.6789 -0.2473  0.0710
 1846DECAN   C518445   3.783   2.998  12.305 -0.7012  0.6707 -0.0450
 1846DECAN   C618446   3.860   3.042  12.179  0.2284  0.0628  0.2946
 1846DECAN   C718447   4.007   3.000  12.189 -0.0290 -1.0269 -0.3434
 1846DECAN   C818448   4.101   3.019  12.069  0.4105  0.1583  0.1696
 1846DECAN   C918449   4.248   2.987  12.102  0.3271  0.0841  0.4699
 1846DECAN  C1018450   4.362   2.986  11.998 -0.3219 -0.1036 -0.2460
 1847DECAN   C118451   3.356   6.258  13.526 -0.5271 -0.4562  0.5278
 1847DECAN   C218452   3.455   6.143  13.557 -0.3215 -0.4950 -0.2670
 1847DECAN   C318453   3.548   6.114  13.438  0.1842 -0.3049  0.0839
 1847DECAN   C418454   3.642   5.993  13.454  0.5663 -0.0439 -0.1509
 1847DECAN   C518455   3.756   5.980  13.352  0.2249 -0.2295 -0.5129
 1847DECAN   C618456   3.838   5.850  13.365 -0.3678 -0.5483  0.0676
 1847DECAN   C718457   3.978   5.878  13.306 -0.2247 -0.2596  0.5351
 1847DECAN   C818458   4.047   5.990  13.385 -0.2840  0.1233  0.0480
 1847DECAN   C918459   4.086   5.955  13.530  0.3032  0.1296 -0.1040
 1847DECAN  C1018460   4.143   6.080  13.601  0.1552 -0.0424  0.3252
 1848DECAN   C118461   4.375   6.242   7.206  0.7101 -0.3176 -0.0143
 1848DECAN   C218462   4.441   6.329   7.098  0.1638 -0.2726 -0.3196
 1848DECAN   C318463   4.505   6.243   6.988  0.1018 -0.4701 -0.2017
 1848DECAN   C418464   4.406   6.178   6.889 -0.1285 -0.4155 -0.0099
 1848DECAN   C518465   4.316   6.078   6.963 -0.2993 -0.2686 -0.0207
 1848DECAN   C618466   4.212   6.007   6.875 -0.7171  0.1981  0.0907
 1848DECAN   C718467   4.128   5.911   6.962 -0.5773 -0.3021 -0.3163
 1848DECAN   C818468   4.048   5.986   7.070  0.0075 -0.0629 -0.0506
 1848DECAN   C918469   4.003   5.878   7.170 -0.2528  0.5715  0.5276
 1848DECAN  C1018470   3.914   5.769   7.110 -0.0374  0.0804  1.0883
 1849DECAN   C118471   2.390   5.663   4.541  0.4396 -0.1367  0.1418
 1849DECAN   C218472   2.498   5.663   4.431  0.3318  0.5887  0.0281
 1849DECAN   C318473   2.473   5.770   4.323 -0.3881  0.0042 -0.3943
 1849DECAN   C418474   2.572   5.771   4.205  0.3155 -0.3871  0.1786
 1849DECAN   C518475   2.507   5.841   4.084  0.5294  0.0699  0.3275
 1849DECAN   C618476   2.589   5.818   3.956  0.1024 -0.1934  0.0974
 1849DECAN   C718477   2.712   5.909   3.939 -0.1841  0.2727  0.5171
 1849DECAN   C818478   2.827   5.910   4.042 -0.1605  0.2052  0.4912
 1849DECAN   C918479   2.941   6.013   4.026  0.0739 -0.0473  0.5151
 1849DECAN  C1018480   3.062   5.987   4.118  0.3459 -0.4759  0.0403
 1850DECAN   C118481   6.441   9.224  11.145 -0.2263  0.2947  0.3772
 1850DECAN   C218482   6.392   9.284  11.278 -0.2576  0.1447  0.4333
 1850DECAN   C318483   6.495   9.288  11.392  0.4909  0.1618 -0.2332
 1850DECAN   C418484   6.437   9.315  11.533  0.1429  0.0617 -0.3553
 1850DECAN   C518485   6.531   9.380  11.635  0.1814 -0.5707  0.0197
 1850DECAN   C618486   6.651   9.292  11.673  0.6158 -0.1237 -0.3030
 1850DECAN   C718487   6.738   9.343  11.789 -0.1617  0.1408  0.1662
 1850DECAN   C818488   6.675   9.372  11.927 -0.1780 -0.3817  0.2720
 1850DECAN   C918489   6.786   9.405  12.028  0.1613 -0.0786 -0.1944
 1850DECAN  C1018490   6.761   9.447  12.175  0.2434 -0.0097 -0.1990
 1851DECAN   C118491   1.385  10.600  10.148 -0.1258 -0.4168 -0.6195
 1851DECAN   C218492   1.462  10.686  10.249 -0.9238 -0.0628 -0.3051
 1851DECAN   C318493   1.504  10.610  10.377 -0.0490  0.3866 -0.3095
 1851DECAN   C418494   1.605  10.682  10.467  0.0490 -0.1727  0.0332
 1851DECAN   C518495   1.714  10.735  10.372  0.2021  0.2305  0.4267
 1851DECAN   C618496   1.840  10.787  10.443  0.0385 -0.1503  1.0015
 1851DECAN   C718497   1.950  10.823  10.341 -0.9853  0.0386 -0.0525
 1851DECAN   C818498   1.984  10.708  10.244  0.2020  0.2362  0.1123
 1851DECAN   C918499   1.857  10.658  10.171  0.2314 -0.1853  0.3496
 1851DECAN  C1018500   1.901  10.552  10.069 -0.4320 -0.0208 -0.1108
 1852DECAN   C118501   7.555   5.463  11.569 -0.4991 -0.1569  0.1185
 1852DECAN   C218502   7.423   5.535  11.536  0.1014  0.7220 -0.4235
 1852DECAN   C318503   7.383   5.650  11.630 -0.0776 -0.0134  0.4205
 1852DECAN   C418504   7.260   5.734  11.590  0.1772  0.0109 -0.3291
 1852DECAN   C518505   7.258   5.860  11.678 -0.7386 -0.3646  0.1968
 1852DECAN   C618506   7.114   5.913  11.657 -0.2537  0.7325 -0.4514
 1852DECAN   C718507   7.075   6.047  11.721 -0.4300  0.4510  0.0335
 1852DECAN   C818508   7.069   6.048  11.875 -0.3584 -0.3811  0.0475
 1852DECAN   C918509   7.006   6.180  11.924  0.0336 -0.2403  0.1749
 1852DECAN  C1018510   6.853   6.196  11.912  0.0741 -0.1979 -0.3128
 1853DECAN   C118511   7.712   0.641  14.656  0.2055 -0.2226 -0.1916
 1853DECAN   C218512   7.745   0.659  14.805 -0.0218 -0.7191 -0.0776
 1853DECAN   C318513   7.889   0.628  14.852  0.0406  0.2675  0.4052
 1853DECAN   C418514   7.997   0.718  14.789 -0.2162  0.4218  0.1844
 1853DECAN   C518515   8.138   0.677  14.834 -0.2351 -0.0703 -0.1922
 1853DECAN   C618516   8.251   0.761  14.771  0.0968 -0.1183  0.3283
 1853DECAN   C718517   8.223   0.783  14.621 -0.4890 -0.2922  0.4049
 1853DECAN   C818518   8.327   0.866  14.542 -0.3992 -0.5158  0.2885
 1853DECAN   C918519   8.286   0.933  14.409  0.2172 -0.1896  0.2623
 1853DECAN  C1018520   8.393   1.027  14.350  0.0968 -0.0305  0.2944
 1854DECAN   C118521   7.765   7.648   7.255  0.0510 -0.4959  0.5827
 1854DECAN   C218522   7.797   7.522   7.172 -0.4432 -0.2012 -0.0639
 1854DECAN   C318523   7.919   7.453   7.235 -0.5820 -0.2174  0.1884
 1854DECAN   C418524   7.989   7.344   7.151 -0.1014  0.2599 -0.0326
 1854DECAN   C518525   8.110   7.262   7.199  0.3117  0.5304 -0.5954
 1854DECAN   C618526   8.181   7.178   7.091  0.6384  0.0905 -0.0448
 1854DECAN   C718527   8.308   7.106   7.140  0.7224 -0.1151 -0.5599
 1854DECAN   C818528   8.402   7.186   7.233  0.1230 -0.3079  0.2247
 1854DECAN   C918529   8.528   7.247   7.169  0.1858  0.2007  0.8195
 1854DECAN  C1018530   8.561   7.389   7.217 -0.2672  0.5285  0.1766
 1855DECAN   C118531   8.907  10.151  12.037 -0.3530  0.2274  0.1072
 1855DECAN   C218532   8.868  10.071  11.910  0.6087 -0.2403  0.1007
 1855DECAN   C318533   8.909   9.925  11.888  0.2372 -0.2387 -0.5991
 1855DECAN   C418534   9.056   9.883  11.866  0.4500 -0.2724  0.7900
 1855DECAN   C518535   9.162   9.916  11.972  0.3772 -0.0549  0.7956
 1855DECAN   C618536   9.299   9.894  11.906 -0.0129  0.1891 -0.0972
 1855DECAN   C718537   9.425   9.951  11.972  0.0772  0.0080 -0.1142
 1855DECAN   C818538   9.419   9.925  12.124 -0.0839  0.0996 -0.1039
 1855DECAN   C918539   9.520   9.998  12.215 -0.2782  0.1036  0.1078
 1855DECAN  C1018540   9.477  10.142  12.249 -1.0051 -0.0982  0.0684
 1856DECAN   C118541   6.043   7.283   3.717 -0.3163 -0.1420 -0.1688
 1856DECAN   C218542   6.046   7.426   3.774 -0.3199 -0.0866 -0.3062
 1856DECAN   C318543   5.906   7.479   3.809 -0.3266 -0.4724  0.2764
 1856DECAN   C418544   5.907   7.627   3.853 -0.2602 -0.4921  0.3403
 1856DECAN   C518545   5.768   7.691   3.871 -0.1201  0.0506 -0.4823
 1856DECAN   C618546   5.759   7.833   3.929 -0.1369 -0.1653  0.0492
 1856DECAN   C718547   5.618   7.874   3.977 -0.1771 -0.1021 -0.1223
 1856DECAN   C818548   5.579   7.784   4.096 -0.1475 -0.6180 -0.4971
 1856DECAN   C918549   5.435   7.811   4.141 -0.0311 -0.8332  0.0092
 1856DECAN  C1018550   5.371   7.733   4.258  0.3281 -0.3920  0.5034
 1857DECAN   C118551   0.756   4.980  10.787 -0.5388  0.3263  1.1142
 1857DECAN   C218552   0.847   5.103  10.768 -0.1983 -0.0651  0.1531
 1857DECAN   C318553   0.997   5.070  10.765 -0.1880 -0.0488  0.4420
 1857DECAN   C418554   1.068   5.203  10.737  0.5138 -0.4561  0.2724
 1857DECAN   C518555   1.218   5.194  10.701  0.4156  0.2731 -0.3551
 1857DECAN   C618556   1.285   5.302  10.613  0.2056  0.2650 -0.5255
 1857DECAN   C718557   1.436   5.313  10.643  0.0842 -0.1039  0.2656
 1857DECAN   C818558   1.499   5.415  10.546 -0.2774  0.1670  0.3137
 1857DECAN   C918559   1.644   5.448  10.586 -0.1306  0.4441 -0.4359
 1857DECAN  C1018560   1.731   5.539  10.497  0.4687  0.3314  0.0268
 1858DECAN   C118561   9.723   6.641   3.829 -0.6408  0.2287  0.2091
 1858DECAN   C218562   9.718   6.781   3.892  0.1614 -0.0162  0.8357
 1858DECAN   C318563   9.833   6.815   3.988  0.6860  0.3581  0.0834
 1858DECAN   C418564   9.799   6.949   4.057 -0.1440  0.0940  0.1934
 1858DECAN   C518565   9.903   6.987   4.164  0.4631 -0.1684 -0.2953
 1858DECAN   C618566   9.884   7.125   4.229  0.3856  0.0331 -0.7451
 1858DECAN   C718567   9.963   7.157   4.357 -0.0796 -0.0212 -0.4411
 1858DECAN   C818568   9.925   7.281   4.439  0.1869 -0.4072  0.2826
 1858DECAN   C918569   9.983   7.282   4.581 -0.0068 -0.0953  0.3611
 1858DECAN  C1018570   9.983   7.423   4.643  0.2595  0.2456 -0.4121
 1859DECAN   C118571  10.446   6.627  11.284  0.0830  0.2738  0.0975
 1859DECAN   C218572  10.576   6.619  11.202  0.0351  0.0596  0.0412
 1859DECAN   C318573  10.693   6.700  11.261 -0.1801  0.3172  0.1182
 1859DECAN   C418574  10.822   6.669  11.182 -0.0406 -0.4029  0.6292
 1859DECAN   C518575  10.948   6.751  11.214 -0.7145  0.8396  0.1299
 1859DECAN   C618576  10.975   6.759  11.365  0.1584  0.1829  0.0137
 1859DECAN   C718577  10.870   6.850  11.432  0.0630  0.1376 -0.0753
 1859DECAN   C818578  10.870   6.857  11.586  0.0446  0.7805 -0.1045
 1859DECAN   C918579  10.731   6.880  11.648  0.1469  0.3312  0.2928
 1859DECAN  C1018580  10.633   6.768  11.610  0.4022  0.2546 -0.1435
 1860DECAN   C118581   4.622   3.817   5.745  0.5109 -0.3160  0.0232
 1860DECAN   C218582   4.563   3.850   5.883  0.3405 -0.1622 -0.0857
 1860DECAN   C318583   4.629   3.760   5.989 -0.0714 -0.2920  0.0609
 1860DECAN   C418584   4.580   3.782   6.134  0.0084  0.2411  0.0088
 1860DECAN   C518585   4.619   3.675   6.238  0.8541  0.6444  0.1146
 1860DECAN   C618586   4.598   3.720   6.384 -0.2721  0.3789  0.0425
 1860DECAN   C718587   4.710   3.811   6.439  0.5302 -0.4483 -0.1949
 1860DECAN   C818588   4.702   3.825   6.592 -0.8863 -0.8551 -0.2214
 1860DECAN   C918589   4.750   3.706   6.678  0.0581 -0.1992  0.1732
 1860DECAN  C1018590   4.755   3.717   6.831 -0.0994  0.0610  0.1612
 1861DECAN   C118591   6.412   8.697  15.082  0.5626 -0.2772 -0.3203
 1861DECAN   C218592   6.275   8.641  15.126  0.4859  0.0594 -0.1265
 1861DECAN   C318593   6.204   8.537  15.037 -0.1388  0.1908  0.2162
 1861DECAN   C418594   6.051   8.523  15.052 -0.1936  0.0109 -0.5133
 1861DECAN   C518595   5.988   8.408  14.972 -0.0731 -0.2233 -0.2706
 1861DECAN   C618596   6.039   8.268  15.011 -0.2340 -0.1233  0.3056
 1861DECAN   C718597   5.980   8.155  14.925  0.2466 -0.2852  0.1825
 1861DECAN   C818598   5.986   8.183  14.773 -0.1383 -0.2092  0.1805
 1861DECAN   C918599   5.913   8.308  14.722  0.0156 -0.1811  0.0289
 1861DECAN  C1018600   5.761   8.297  14.699  0.0746 -0.2404 -0.3329
 1862DECAN   C118601   7.416   4.562  14.293  0.3146  1.0611  0.2859
 1862DECAN   C218602   7.360   4.432  14.231  0.1943  0.7111  1.1126
 1862DECAN   C318603   7.483   4.342  14.209 -0.5293 -0.0731  0.2043
 1862DECAN   C418604   7.443   4.201  14.162  0.0738 -0.0123 -0.5168
 1862DECAN   C518605   7.561   4.104  14.145  0.0215 -0.2267  0.2935
 1862DECAN   C618606   7.508   3.961  14.119 -0.2908 -0.1127  0.3023
 1862DECAN   C718607   7.490   3.879  14.248 -0.4692  0.4322  0.6284
 1862DECAN   C818608   7.454   3.730  14.252  0.3702  0.2118  0.2367
 1862DECAN   C918609   7.422   3.697  14.399 -0.0501 -0.4042  0.0139
 1862DECAN  C1018610   7.370   3.553  14.407 -0.8410 -0.1580 -0.4896
 1863DECAN   C118611   0.827   1.187   9.319 -0.0026 -0.3319 -0.4332
 1863DECAN   C218612   0.836   1.104   9.448 -0.0090  0.0817 -0.1682
 1863DECAN   C318613   0.972   1.045   9.490  0.2342  0.8097  0.0814
 1863DECAN   C418614   0.970   0.987   9.632 -0.2609  0.8763  0.1050
 1863DECAN   C518615   1.107   0.997   9.701 -0.3281  0.6873  0.2693
 1863DECAN   C618616   1.087   0.962   9.850 -0.4852  0.1816  0.1307
 1863DECAN   C718617   1.223   0.976   9.921 -0.2058  1.0368 -0.5433
 1863DECAN   C818618   1.226   1.035  10.064  0.2743 -0.0402 -0.0971
 1863DECAN   C918619   1.372   1.062  10.106  0.1707 -0.4282  0.5209
 1863DECAN  C1018620   1.393   1.108  10.251 -0.5437  0.3497  0.3892
 1864DECAN   C118621   8.853   7.628  13.767  0.1635 -0.1715 -0.1461
 1864DECAN   C218622   8.944   7.606  13.890  0.0095 -0.3702 -0.0671
 1864DECAN   C318623   9.005   7.465  13.894  0.0863 -0.3388 -0.1286
 1864DECAN   C418624   9.052   7.446  14.039  0.0956 -0.0396 -0.0930
 1864DECAN   C518625   9.115   7.313  14.082  0.0479 -0.1214 -0.2752
 1864DECAN   C618626   9.107   7.277  14.231 -0.6941 -0.0677 -0.3000
 1864DECAN   C718627   9.126   7.126  14.255 -0.4128  0.0148  0.0141
 1864DECAN   C818628   9.141   7.095  14.405  0.0867  0.0642 -0.0244
 1864DECAN   C918629   9.192   6.954  14.441 -0.3534 -0.0961 -0.0202
 1864DECAN  C1018630   9.214   6.944  14.593 -0.6449 -0.1607  0.0174
 1865DECAN   C118631   3.500   1.023   3.989 -0.1216  0.3881  0.2968
 1865DECAN   C218632   3.545   0.884   4.038 -0.1267  0.1616 -0.3318
 1865DECAN   C318633   3.427   0.800   4.090 -0.0863  0.1566 -0.2481
 1865DECAN   C418634   3.477   0.668   4.152  0.2377  0.5046  0.2344
 1865DECAN   C518635   3.381   0.600   4.251  0.2619  0.0841 -0.0293
 1865DECAN   C618636   3.259   0.518   4.205  0.5917 -0.2683 -0.2802
 1865DECAN   C718637   3.194   0.433   4.316  0.2851 -0.2029 -0.4093
 1865DECAN   C818638   3.081   0.335   4.279 -0.3406  0.2141  0.3672
 1865DECAN   C918639   3.020   0.262   4.401 -0.6766  0.3107  0.2566
 1865DECAN  C1018640   3.127   0.177   4.471 -0.3057  0.4647 -0.1161
 1866DECAN   C118641   7.098   5.303   4.767  0.1679 -0.8444 -0.1541
 1866DECAN   C218642   7.142   5.259   4.908 -0.0786  0.5186  0.3600
 1866DECAN   C318643   7.261   5.337   4.966 -0.2645  0.6101  0.6196
 1866DECAN   C418644   7.301   5.286   5.106  0.2758 -0.3231  0.1334
 1866DECAN   C518645   7.184   5.293   5.206  0.2047  0.0622  0.0262
 1866DECAN   C618646   7.133   5.427   5.262  0.4500  0.0256  0.3430
 1866DECAN   C718647   7.239   5.538   5.255  0.5135 -0.0371  0.3289
 1866DECAN   C818648   7.188   5.665   5.325 -0.0995 -0.3007  0.3697
 1866DECAN   C918649   7.164   5.650   5.476  0.2822 -0.4120  0.4204
 1866DECAN  C1018650   7.085   5.767   5.536  0.7916  0.2632 -0.2014
 1867DECAN   C118651   5.332   1.590  12.167 -0.1592  0.0996  0.3266
 1867DECAN   C218652   5.348   1.595  12.014 -0.1919 -0.5239  0.3011
 1867DECAN   C318653   5.284   1.710  11.933  0.1864 -0.3905  0.1920
 1867DECAN   C418654   5.322   1.690  11.785 -0.2792  0.7425 -0.0821
 1867DECAN   C518655   5.475   1.681  11.774 -0.2702 -0.1863  0.7256
 1867DECAN   C618656   5.530   1.663  11.632 -0.6123  0.2299  0.5417
 1867DECAN   C718657   5.679   1.628  11.617 -0.4999  0.8251  0.2049
 1867DECAN   C818658   5.745   1.642  11.479 -0.0795  0.6407  0.3852
 1867DECAN   C918659   5.898   1.632  11.489 -0.0848 -0.1173 -0.1543
 1867DECAN  C1018660   5.967   1.495  11.504 -0.6224 -0.2988  0.7264
 1868DECAN   C118661   6.792   8.692   3.774 -0.3717 -0.0985  0.3523
 1868DECAN   C218662   6.866   8.564   3.731 -0.4514  0.0013 -0.0875
 1868DECAN   C318663   7.020   8.568   3.743 -0.4793 -0.1173  0.3267
 1868DECAN   C418664   7.057   8.420   3.767  0.0079 -0.1667 -0.6748
 1868DECAN   C518665   7.206   8.397   3.799 -0.1049 -0.4802 -0.3715
 1868DECAN   C618666   7.230   8.256   3.857 -0.3543 -0.0189  0.8889
 1868DECAN   C718667   7.375   8.218   3.892  0.1088  0.5052 -0.4052
 1868DECAN   C818668   7.390   8.103   3.993 -0.1818  0.4255 -0.4512
 1868DECAN   C918669   7.539   8.066   4.011 -0.2463  0.2349 -0.3028
 1868DECAN  C1018670   7.559   7.973   4.131  0.0025  0.8383  0.1293
 1869DECAN   C118671   6.354   4.189   4.514  0.0041 -0.2035  0.0198
 1869DECAN   C218672   6.285   4.054   4.542  0.0950 -0.1474  0.5407
 1869DECAN   C318673   6.370   3.932   4.581  0.0571 -0.3284  0.0734
 1869DECAN   C418674   6.297   3.841   4.682  0.1563 -0.1057  0.3476
 1869DECAN   C518675   6.295   3.692   4.644  0.3383 -0.1737  0.5996
 1869DECAN   C618676   6.212   3.598   4.733  0.1116  0.2437  0.8305
 1869DECAN   C718677   6.232   3.451   4.690  0.2596  0.2532  0.8672
 1869DECAN   C818678   6.191   3.328   4.773 -0.2159 -0.4358 -0.3768
 1869DECAN   C918679   6.288   3.307   4.891  0.0615 -0.1087 -0.5456
 1869DECAN  C1018680   6.223   3.278   5.027  0.3080  0.2377 -0.3519
 1870DECAN   C118681   1.154   5.599   8.787  0.1802 -0.3080  1.1224
 1870DECAN   C218682   1.259   5.710   8.768  0.0417 -0.3103  0.3256
 1870DECAN   C318683   1.181   5.843   8.776 -0.1534 -0.3729 -0.4479
 1870DECAN   C418684   1.274   5.961   8.746 -0.1772 -0.3495 -0.4273
 1870DECAN   C518685   1.213   6.102   8.738 -0.7357 -0.5225  0.6734
 1870DECAN   C618686   1.216   6.168   8.877  0.0760  0.4730  0.1959
 1870DECAN   C718687   1.356   6.197   8.934  0.1566  0.6296 -0.0811
 1870DECAN   C818688   1.447   6.073   8.937 -0.7986 -0.0768  0.1325
 1870DECAN   C918689   1.588   6.104   8.990 -0.6459 -0.2206 -0.1825
 1870DECAN  C1018690   1.588   6.156   9.135  0.3869  0.0335 -0.2680
 1871DECAN   C118691   5.890   0.395  10.615 -0.3270 -0.1810  0.2751
 1871DECAN   C218692   5.877   0.264  10.535 -0.1745 -0.0489  0.0340
 1871DECAN   C318693   5.895   0.269  10.382  0.0417 -0.4045  0.0464
 1871DECAN   C418694   6.040   0.306  10.343 -0.2691  0.0004 -0.7506
 1871DECAN   C518695   6.084   0.436  10.412  0.1314 -0.1488 -0.7241
 1871DECAN   C618696   6.215   0.509  10.375  0.1216  0.4013  0.3121
 1871DECAN   C718697   6.236   0.647  10.441  0.3392  0.6770 -0.3319
 1871DECAN   C818698   6.359   0.720  10.384  0.5179  0.5649 -0.0919
 1871DECAN   C918699   6.380   0.861  10.442  0.1361  0.4708  0.2766
 1871DECAN  C1018700   6.483   0.940  10.359  0.1793 -0.0751 -0.1919
 1872DECAN   C118701  10.336   2.281   8.979 -0.3581 -0.4089  0.0868
 1872DECAN   C218702  10.337   2.168   8.875 -0.4771  0.6467 -1.0839
 1872DECAN   C318703  10.197   2.104   8.866 -0.0610 -0.3959 -0.3253
 1872DECAN   C418704  10.156   2.042   9.001  0.0741 -0.5810 -0.3697
 1872DECAN   C518705  10.015   1.985   9.023  0.1602 -0.3390  0.8992
 1872DECAN   C618706   9.913   2.093   9.065 -0.2908 -0.3579 -0.1204
 1872DECAN   C718707   9.767   2.045   9.062 -0.2851 -0.4194  0.5416
 1872DECAN   C818708   9.659   2.118   9.144 -0.0147  0.0277  0.5022
 1872DECAN   C918709   9.523   2.055   9.108  0.1365  0.1550 -0.3177
 1872DECAN  C1018710   9.405   2.114   9.187  0.3403 -0.0847  0.1673
 1873DECAN   C118711   6.633  10.441   5.813 -0.0926  0.0620  0.4049
 1873DECAN   C218712   6.708  10.525   5.919  0.1586  0.1261  0.1781
 1873DECAN   C318713   6.628  10.612   6.017  0.5482  1.0150 -0.2780
 1873DECAN   C418714   6.711  10.719   6.091  0.8998  0.6997 -0.2159
 1873DECAN   C518715   6.640  10.821   6.182 -0.3761 -0.4370  0.0908
 1873DECAN   C618716   6.738  10.910   6.259 -0.1342 -0.4306 -0.2245
 1873DECAN   C718717   6.668  10.968   6.383  0.2337  0.7262 -0.5404
 1873DECAN   C818718   6.537  11.045   6.362 -0.6034 -0.2326  0.9590
 1873DECAN   C918719   6.425  10.946   6.324 -0.0145 -0.7297  0.5022
 1873DECAN  C1018720   6.292  11.020   6.349  0.0773 -0.3751 -0.0320
 1874DECAN   C118721   3.269   5.485  10.442 -0.3204  0.1952  0.1035
 1874DECAN   C218722   3.182   5.360  10.468  0.2157 -0.2066 -0.0076
 1874DECAN   C318723   3.043   5.367  10.402  0.1644 -0.1726  0.1032
 1874DECAN   C418724   2.991   5.224  10.376 -0.3423  0.0115  0.1003
 1874DECAN   C518725   2.858   5.228  10.298 -0.3648 -0.0587  0.1344
 1874DECAN   C618726   2.806   5.091  10.250 -0.2506  0.0347 -0.2566
 1874DECAN   C718727   2.886   5.026  10.135  0.4711 -0.2343  0.3885
 1874DECAN   C818728   2.800   4.911  10.079 -0.0479  0.3563 -0.0503
 1874DECAN   C918729   2.849   4.836   9.954 -0.1259  0.0980  0.0725
 1874DECAN  C1018730   2.982   4.764   9.983 -0.3976 -0.2975  0.3450
 1875DECAN   C118731   9.574   0.990  14.251  0.1475 -0.3315  0.1476
 1875DECAN   C218732   9.434   1.000  14.188  0.4966  0.4309 -0.5340
 1875DECAN   C318733   9.402   0.910  14.067  0.3108 -0.0451 -0.1344
 1875DECAN   C418734   9.265   0.946  14.007  0.1414 -0.3708  0.0556
 1875DECAN   C518735   9.274   0.931  13.854 -0.0346  0.2910 -0.0223
 1875DECAN   C618736   9.150   0.978  13.776 -0.4757 -0.5991  0.1366
 1875DECAN   C718737   9.162   0.970  13.623 -0.1696 -0.0390  0.1277
 1875DECAN   C818738   9.064   1.061  13.546 -0.3632 -0.1480  0.2437
 1875DECAN   C918739   9.095   1.066  13.395  0.3361  0.1977  0.3926
 1875DECAN  C1018740   8.970   1.070  13.306  0.5230 -0.5827  0.0888
 1876DECAN   C118741   4.632   5.667  10.172 -0.4176 -0.3380 -0.0368
 1876DECAN   C218742   4.588   5.814  10.159 -0.2586 -0.2607  0.2687
 1876DECAN   C318743   4.615   5.868  10.017  0.5063 -0.0374  0.4954
 1876DECAN   C418744   4.584   6.019  10.023  0.4941 -0.0301  0.2565
 1876DECAN   C518745   4.690   6.099  10.100  0.6034 -0.0203  0.0955
 1876DECAN   C618746   4.832   6.106  10.042  0.5360 -0.1542 -0.0858
 1876DECAN   C718747   4.898   5.968  10.026 -0.2255 -0.6118  0.6609
 1876DECAN   C818748   5.027   5.976   9.942 -0.7277 -0.0550 -0.0699
 1876DECAN   C918749   5.115   5.853   9.973 -0.2654  0.2569 -0.1310
 1876DECAN  C1018750   5.212   5.840   9.854 -0.1300 -0.1003  0.0195
 1877DECAN   C118751  10.059   7.238   7.336 -0.3105  0.1551 -0.3013
 1877DECAN   C218752  10.034   7.390   7.345 -0.0668  0.2052 -0.4498
 1877DECAN   C318753   9.892   7.435   7.307 -0.0234 -0.0285 -0.8937
 1877DECAN   C418754   9.866   7.584   7.280  0.1787  0.2174  0.2119
 1877DECAN   C518755   9.936   7.641   7.155  0.1338  0.2678  0.2095
 1877DECAN   C618756  10.089   7.655   7.165  0.1803 -0.3337  0.3838
 1877DECAN   C718757  10.151   7.713   7.037 -0.5955 -0.1948  0.0683
 1877DECAN   C818758  10.299   7.756   7.045 -0.6499 -0.0719  0.4529
 1877DECAN   C918759  10.394   7.642   7.086  0.4561  0.5103 -0.4173
 1877DECAN  C1018760  10.421   7.550   6.966  0.3979  0.0444 -0.0766
 1878DECAN   C118761   4.101   2.618  12.185  0.0313  1.1934 -0.6921
 1878DECAN   C218762   4.175   2.547  12.070 -0.0133 -0.0202  0.0089
 1878DECAN   C318763   4.180   2.637  11.945 -0.4562  0.4324  0.3135
 1878DECAN   C418764   4.061   2.616  11.849  0.0001  0.7298 -0.3177
 1878DECAN   C518765   3.935   2.681  11.907  0.0144  0.0056  0.5322
 1878DECAN   C618766   3.804   2.699  11.828  0.0974  0.0724  0.4123
 1878DECAN   C718767   3.685   2.766  11.899 -0.0461  0.3829 -0.1145
 1878DECAN   C818768   3.580   2.837  11.812 -0.3193 -0.2176 -0.2781
 1878DECAN   C918769   3.452   2.870  11.892  0.2574 -0.0125  0.5646
 1878DECAN  C1018770   3.378   2.736  11.904  0.3417 -0.1292 -0.1753
 1879DECAN   C118771   4.051  10.542  11.429 -0.3226 -0.5236  0.5537
 1879DECAN   C218772   3.990  10.646  11.525 -0.4122  0.2233 -0.3041
 1879DECAN   C318773   3.837  10.661  11.509 -0.5072 -0.3263  0.0481
 1879DECAN   C418774   3.772  10.787  11.567 -0.0984 -0.1155  0.0555
 1879DECAN   C518775   3.623  10.754  11.545 -0.0431 -0.1614 -0.2472
 1879DECAN   C618776   3.529  10.869  11.585  0.4577  0.1279  0.1044
 1879DECAN   C718777   3.537  10.926  11.728  0.2976 -0.1542  0.2256
 1879DECAN   C818778   3.426  11.030  11.750  0.5145  0.0277  0.4621
 1879DECAN   C918779   3.284  10.997  11.700  0.2899  0.4271  0.8298
 1879DECAN  C1018780   3.179  11.105  11.730 -0.3384  0.0298  0.0914
 1880DECAN   C118781   9.756   2.168   7.732 -0.5256 -0.7963 -0.0726
 1880DECAN   C218782   9.869   2.062   7.726  0.1987 -0.0473  0.0926
 1880DECAN   C318783   9.905   2.016   7.583  0.3650 -0.7113  0.3473
 1880DECAN   C418784   9.786   1.939   7.525  0.1712  0.0235 -0.2465
 1880DECAN   C518785   9.645   2.001   7.534  0.5120  0.8417 -0.4876
 1880DECAN   C618786   9.523   1.913   7.500  0.6318  0.6012 -0.2990
 1880DECAN   C718787   9.524   1.771   7.560 -0.3925  0.6923 -0.0565
 1880DECAN   C818788   9.634   1.676   7.510 -0.2512  0.4848  0.6362
 1880DECAN   C918789   9.619   1.534   7.566  0.5701 -0.0566 -0.4653
 1880DECAN  C1018790   9.746   1.451   7.541  0.2416 -0.6145 -0.2914
 1881DECAN   C118791   3.419   4.399  10.575  0.0323  0.1769 -0.2288
 1881DECAN   C218792   3.270   4.385  10.612  0.1395 -0.2904  0.0347
 1881DECAN   C318793   3.184   4.281  10.539 -0.3984 -0.0362  0.3027
 1881DECAN   C418794   3.038   4.274  10.587 -0.5776  0.6027 -0.1330
 1881DECAN   C518795   3.036   4.227  10.734 -0.1210  0.5395 -0.1471
 1881DECAN   C618796   2.898   4.208  10.799  0.1476  0.3605  0.3734
 1881DECAN   C718797   2.899   4.185  10.952  0.1193  0.8256  0.4462
 1881DECAN   C818798   2.766   4.140  11.015  0.1120 -0.0479 -0.1696
 1881DECAN   C918799   2.779   4.109  11.166  0.3414  0.3233 -0.1129
 1881DECAN  C1018800   2.668   4.045  11.250  0.6286  0.0236  0.0393
 1882DECAN   C118801   3.375  10.967   7.450 -0.0869  0.2496  0.4240
 1882DECAN   C218802   3.524  10.987   7.486  0.0612  0.5872 -0.3645
 1882DECAN   C318803   3.538  11.020   7.635 -0.3453  0.2090 -0.2403
 1882DECAN   C418804   3.666  11.095   7.677 -0.2343 -0.1691  0.1026
 1882DECAN   C518805   3.786  10.998   7.670 -0.3744 -0.3455  0.1078
 1882DECAN   C618806   3.778  10.905   7.792 -0.5157 -0.3505  0.0942
 1882DECAN   C718807   3.821  10.989   7.914  0.0134  0.0246 -0.3431
 1882DECAN   C818808   3.793  10.894   8.033 -0.0859  0.6547  0.1434
 1882DECAN   C918809   3.644  10.857   8.043  0.0070  0.0519 -0.6020
 1882DECAN  C1018810   3.543  10.972   8.064  1.0010  0.7648  0.4318
 1883DECAN   C118811   6.437   3.615  14.546  0.0677  0.0945  0.2189
 1883DECAN   C218812   6.521   3.529  14.641  0.3713  0.1177 -0.0272
 1883DECAN   C318813   6.563   3.618  14.760 -0.1071  0.1585  0.1103
 1883DECAN   C418814   6.673   3.719  14.725 -0.1097  0.2021  0.2257
 1883DECAN   C518815   6.648   3.807  14.601  0.2105 -0.3415 -0.2291
 1883DECAN   C618816   6.740   3.926  14.565 -0.1822 -0.0292 -0.2096
 1883DECAN   C718817   6.684   4.011  14.450  0.1595  0.1044 -0.2793
 1883DECAN   C818818   6.770   4.133  14.413  0.7487 -0.1002  0.4105
 1883DECAN   C918819   6.699   4.245  14.336  0.0381 -0.5395  0.4175
 1883DECAN  C1018820   6.796   4.359  14.299 -0.1248 -0.2886  0.7592
 1884DECAN   C118821   5.915   5.908  10.941  0.3987 -0.0085 -0.1133
 1884DECAN   C218822   5.885   5.898  11.091 -0.1906 -0.2245 -0.2413
 1884DECAN   C318823   5.979   5.803  11.169  0.0865  0.3315  0.1089
 1884DECAN   C418824   5.905   5.743  11.290  0.5705 -0.0653  0.2125
 1884DECAN   C518825   5.860   5.848  11.394 -0.6004 -0.2661 -0.0791
 1884DECAN   C618826   5.776   5.953  11.319 -0.2713 -0.1067 -0.2307
 1884DECAN   C718827   5.752   6.080  11.402  0.0899  0.0040 -0.2973
 1884DECAN   C818828   5.657   6.181  11.336  0.2841  0.5549  0.2519
 1884DECAN   C918829   5.719   6.256  11.215  0.5466 -0.1596 -0.0601
 1884DECAN  C1018830   5.838   6.347  11.247  0.3915  0.2706 -0.6981
 1885DECAN   C118831  10.637   6.404  12.294 -0.1082 -0.3212  0.0226
 1885DECAN   C218832  10.537   6.466  12.393  0.3467  0.0405  0.2619
 1885DECAN   C318833  10.568   6.442  12.542  0.2455  0.2837  0.3216
 1885DECAN   C418834  10.582   6.294  12.582  0.4894  0.1715 -0.1723
 1885DECAN   C518835  10.631   6.273  12.727  0.0454 -0.2168 -0.0743
 1885DECAN   C618836  10.636   6.122  12.753  0.0277 -0.2251 -0.1191
 1885DECAN   C718837  10.627   6.090  12.904 -0.9890  0.2277 -0.0818
 1885DECAN   C818838  10.605   5.940  12.930 -0.1323  0.1379  0.1259
 1885DECAN   C918839  10.552   5.900  13.069 -0.2424 -0.1764 -0.0062
 1885DECAN  C1018840  10.508   5.753  13.083 -0.3657 -0.1527 -0.1399
 1886DECAN   C118841   5.716   8.291   9.688  0.2074 -0.5551  0.2914
 1886DECAN   C218842   5.618   8.331   9.800  0.3366  0.2458  0.1244
 1886DECAN   C318843   5.556   8.470   9.775 -0.3622 -0.0931 -0.0602
 1886DECAN   C418844   5.509   8.557   9.893  0.1212  0.4884 -0.2923
 1886DECAN   C518845   5.449   8.690   9.846  0.1373  0.4248 -0.4933
 1886DECAN   C618846   5.416   8.776   9.969  0.1392 -0.6720  0.2798
 1886DECAN   C718847   5.338   8.906   9.943  0.4491 -0.4285  0.5458
 1886DECAN   C818848   5.296   8.964  10.079  0.0426 -0.2336  0.3395
 1886DECAN   C918849   5.207   9.090  10.070  0.4031  0.0280  0.3876
 1886DECAN  C1018850   5.176   9.155  10.206  0.1673 -0.1715  0.4317
 1887DECAN   C118851   5.176   9.583  14.218  0.4093 -0.1467 -0.4865
 1887DECAN   C218852   5.111   9.722  14.225 -0.3046 -0.5008  0.0899
 1887DECAN   C318853   4.960   9.730  14.252 -0.3431  0.1502 -0.3001
 1887DECAN   C418854   4.923   9.716  14.401  0.2454  0.1029 -0.1548
 1887DECAN   C518855   4.996   9.809  14.500 -0.1486  0.1990  0.0458
 1887DECAN   C618856   4.939   9.820  14.643 -0.1655  0.4266  0.0218
 1887DECAN   C718857   5.032   9.901  14.735 -0.2402 -0.0401  0.5119
 1887DECAN   C818858   4.997   9.881  14.884  0.2388  0.0814  0.6429
 1887DECAN   C918859   5.012   9.742  14.948  0.0889 -0.1195  0.2491
 1887DECAN  C1018860   5.160   9.698  14.944  0.0185 -0.2980 -0.4934
 1888DECAN   C118861   3.067   6.929   9.830  0.0600 -0.9079  0.1518
 1888DECAN   C218862   3.061   6.883   9.977  0.2165  0.3115  0.5534
 1888DECAN   C318863   3.188   6.827  10.044  0.4623  0.3241  0.1002
 1888DECAN   C418864   3.222   6.682  10.004 -0.2971  0.2353 -0.2385
 1888DECAN   C518865   3.346   6.625  10.076 -0.0657 -0.0421 -0.8536
 1888DECAN   C618866   3.478   6.620   9.998  0.0529  0.0284 -0.6565
 1888DECAN   C718867   3.541   6.760  10.011 -0.3185  0.1111  0.3108
 1888DECAN   C818868   3.629   6.790   9.888 -0.2329 -0.6711  0.1701
 1888DECAN   C918869   3.561   6.746   9.757 -0.0692 -0.5190  0.0336
 1888DECAN  C1018870   3.498   6.865   9.681  0.4171 -0.6373 -0.5618
 1889DECAN   C118871   2.002   1.975  11.516 -0.0135 -0.0610 -0.5776
 1889DECAN   C218872   2.062   1.836  11.488  0.1606  0.0369 -0.6909
 1889DECAN   C318873   2.153   1.839  11.364 -0.1313  0.3320 -0.9004
 1889DECAN   C418874   2.214   1.698  11.348 -0.0192  0.2788 -0.0537
 1889DECAN   C518875   2.299   1.661  11.225  0.0838 -0.0338  0.1097
 1889DECAN   C618876   2.366   1.524  11.238 -0.4282 -0.2845  0.1556
 1889DECAN   C718877   2.497   1.510  11.318 -0.2435  0.0259 -0.0927
 1889DECAN   C818878   2.485   1.592  11.448 -0.1313  0.3151 -0.2638
 1889DECAN   C918879   2.620   1.615  11.519 -0.1101  0.1163 -0.2374
 1889DECAN  C1018880   2.689   1.736  11.454  0.5799 -0.2098 -0.1174
 1890DECAN   C118881   6.582   8.194   8.625 -0.3631  0.0106 -0.1657
 1890DECAN   C218882   6.571   8.202   8.471  0.3752  0.0537 -0.2208
 1890DECAN   C318883   6.632   8.330   8.412 -0.3883  0.4616 -0.1350
 1890DECAN   C418884   6.605   8.345   8.261  0.0062 -0.4121 -0.2971
 1890DECAN   C518885   6.654   8.475   8.193 -0.4922 -0.2238 -0.2997
 1890DECAN   C618886   6.639   8.491   8.041 -0.4013  0.1300 -0.2704
 1890DECAN   C718887   6.688   8.636   8.020  0.3313 -0.1232 -0.3416
 1890DECAN   C818888   6.668   8.686   7.876 -0.2684 -0.4063 -0.3605
 1890DECAN   C918889   6.744   8.593   7.780 -0.2741 -0.3974 -0.3728
 1890DECAN  C1018890   6.793   8.668   7.655  0.3832  0.3768  0.3387
 1891DECAN   C118891   1.447   5.129  12.431 -0.2495 -0.1713 -0.4582
 1891DECAN   C218892   1.481   5.273  12.389  0.1903 -0.1856 -0.1654
 1891DECAN   C318893   1.514   5.285  12.239 -0.1773 -0.3910 -0.2627
 1891DECAN   C418894   1.388   5.263  12.153 -0.2416  0.5325 -0.4172
 1891DECAN   C518895   1.379   5.339  12.019 -0.3826 -0.0252 -0.7264
 1891DECAN   C618896   1.244   5.328  11.944 -0.7624  0.0008 -0.0596
 1891DECAN   C718897   1.237   5.425  11.825 -0.0530  0.0052 -0.1011
 1891DECAN   C818898   1.328   5.371  11.712  0.0551  0.1985 -0.1071
 1891DECAN   C918899   1.301   5.224  11.678 -0.1954  0.2185  0.0020
 1891DECAN  C1018900   1.360   5.178  11.544 -0.5409  0.5341 -0.2603
 1892DECAN   C118901   2.186   2.947  12.709  1.0272  0.2404  0.4060
 1892DECAN   C218902   2.076   2.946  12.818  0.2943  0.5686 -0.3165
 1892DECAN   C318903   1.956   3.039  12.796 -0.0098  0.3666  0.4589
 1892DECAN   C418904   2.014   3.175  12.750 -0.0573  0.1876 -0.1368
 1892DECAN   C518905   1.927   3.291  12.804  0.4545  0.2439  0.5748
 1892DECAN   C618906   1.943   3.427  12.735  0.6415  0.1584  0.4465
 1892DECAN   C718907   1.860   3.535  12.808 -0.0057 -0.2015  0.2495
 1892DECAN   C818908   1.721   3.484  12.850 -0.1171 -0.1997 -0.1045
 1892DECAN   C918909   1.638   3.599  12.910  0.1666 -0.3976  0.6925
 1892DECAN  C1018910   1.502   3.558  12.969 -0.1871 -0.0856  0.1102
 1893DECAN   C118911   4.299   6.689   5.708  0.1380  0.0602  0.0657
 1893DECAN   C218912   4.212   6.614   5.811 -0.2672  0.1534 -0.2070
 1893DECAN   C318913   4.068   6.667   5.795 -0.2887  0.1526 -0.0159
 1893DECAN   C418914   4.048   6.817   5.821  0.3176  0.2098  0.1450
 1893DECAN   C518915   4.085   6.875   5.958  0.1995  0.5602  0.0320
 1893DECAN   C618916   4.001   6.799   6.063 -0.3920  0.4323 -0.5338
 1893DECAN   C718917   4.019   6.824   6.214 -0.4987 -0.0230 -0.4456
 1893DECAN   C818918   3.931   6.738   6.306 -0.0812  0.1759  0.1424
 1893DECAN   C918919   3.790   6.793   6.274 -0.3228 -0.3418  0.2966
 1893DECAN  C1018920   3.755   6.767   6.126  0.4898 -0.0335  0.0435
 1894DECAN   C118921   8.665   4.464  10.623 -0.0465 -0.0775 -0.1033
 1894DECAN   C218922   8.544   4.370  10.611  0.3031 -0.5344 -0.0683
 1894DECAN   C318923   8.476   4.383  10.474  0.1544 -0.4941  0.0077
 1894DECAN   C418924   8.334   4.325  10.468 -0.3349  0.6750  0.1764
 1894DECAN   C518925   8.272   4.329  10.327  0.3016  0.4432 -0.1147
 1894DECAN   C618926   8.363   4.281  10.213 -0.5623 -0.0302 -0.6193
 1894DECAN   C718927   8.378   4.127  10.220 -0.1379  0.0484  0.5381
 1894DECAN   C818928   8.249   4.045  10.241 -0.0653 -0.4017 -0.7178
 1894DECAN   C918929   8.250   3.894  10.211  1.2941 -0.4899 -0.3061
 1894DECAN  C1018930   8.110   3.831  10.195  0.7924  0.5214  0.0034
 1895DECAN   C118931   7.445   9.385   8.891 -0.9457 -0.5586  0.0893
 1895DECAN   C218932   7.334   9.471   8.828  0.3527  0.4557 -0.8868
 1895DECAN   C318933   7.322   9.455   8.675 -0.0038  0.4761 -0.8624
 1895DECAN   C418934   7.444   9.509   8.597  0.0166  0.6329 -0.7247
 1895DECAN   C518935   7.567   9.431   8.646 -0.4606  0.1272 -0.3151
 1895DECAN   C618936   7.686   9.456   8.552  0.0622 -0.2786  0.2255
 1895DECAN   C718937   7.733   9.603   8.553  0.4209 -0.3910 -0.0003
 1895DECAN   C818938   7.809   9.642   8.425 -0.8683  0.3804 -0.5487
 1895DECAN   C918939   7.857   9.789   8.414 -0.6087  0.3640  0.2769
 1895DECAN  C1018940   7.952   9.839   8.524 -0.4630  0.4103  0.1288
 1896DECAN   C118941   5.414   3.467  14.310  0.1930 -0.0843 -0.3822
 1896DECAN   C218942   5.319   3.372  14.386 -0.1813 -0.1202 -0.8952
 1896DECAN   C318943   5.282   3.240  14.316  0.0812 -0.5678 -0.1969
 1896DECAN   C418944   5.168   3.156  14.377 -0.2033 -0.0719 -0.0394
 1896DECAN   C518945   5.209   3.120  14.521 -0.4435  0.3092  0.1255
 1896DECAN   C618946   5.098   3.058  14.608 -0.2513 -0.4665 -0.1748
 1896DECAN   C718947   5.139   3.029  14.753 -0.6605 -0.5363 -0.0706
 1896DECAN   C818948   5.032   2.977  14.852 -0.4584 -0.2440  0.3072
 1896DECAN   C918949   5.079   2.878  14.960 -0.2387  0.0817  0.5120
 1896DECAN  C1018950   4.973   2.832  15.062 -1.0720 -0.3973 -0.5438
 1897DECAN   C118951   8.430   3.124  13.167 -0.3021 -0.6407 -0.3475
 1897DECAN   C218952   8.520   3.238  13.218 -0.5941 -0.3481 -0.4841
 1897DECAN   C318953   8.450   3.347  13.302  0.1890 -0.0358 -0.2311
 1897DECAN   C418954   8.342   3.425  13.226  0.3124  0.2987 -0.0648
 1897DECAN   C518955   8.225   3.332  13.188  0.2226  0.5337 -0.3663
 1897DECAN   C618956   8.092   3.394  13.140 -0.3563 -0.2738  0.1656
 1897DECAN   C718957   8.022   3.471  13.253 -0.2819 -0.4633  0.3417
 1897DECAN   C818958   7.873   3.489  13.219 -0.3126  0.2423  0.8403
 1897DECAN   C918959   7.869   3.586  13.100  0.4641 -0.6338  0.0891
 1897DECAN  C1018960   7.960   3.711  13.099  0.1317 -0.3917 -0.0847
 1898DECAN   C118961   5.864   9.547  14.354  0.1461  0.2771 -0.4558
 1898DECAN   C218962   5.915   9.511  14.494 -0.6154 -0.0537 -0.2604
 1898DECAN   C318963   5.905   9.361  14.528 -0.1082 -0.1075 -0.3395
 1898DECAN   C418964   5.942   9.335  14.676 -0.3143 -0.2075 -0.3048
 1898DECAN   C518965   5.977   9.190  14.715  0.7380  0.1585  0.1489
 1898DECAN   C618966   6.027   9.179  14.860  1.0475 -0.2568  0.0119
 1898DECAN   C718967   6.036   9.030  14.898  0.1640 -0.2037  0.4558
 1898DECAN   C818968   6.164   8.960  14.849  0.0969  0.0116 -0.0337
 1898DECAN   C918969   6.177   8.953  14.696  0.5892  0.7873 -0.0318
 1898DECAN  C1018970   6.288   8.862  14.640  0.4505  0.5262  0.1160
 1899DECAN   C118971  10.294   6.673   7.805 -0.4817  0.1690  0.1252
 1899DECAN   C218972  10.353   6.656   7.664 -0.2315 -0.2881  0.2813
 1899DECAN   C318973  10.385   6.508   7.639  0.1715 -0.2717  0.6715
 1899DECAN   C418974  10.446   6.480   7.500 -0.3388 -0.4239  0.4705
 1899DECAN   C518975  10.547   6.364   7.493  0.6061  0.3635  0.7102
 1899DECAN   C618976  10.617   6.326   7.625  0.2734  0.4121  0.9038
 1899DECAN   C718977  10.696   6.194   7.628 -0.1951  0.1226  0.5714
 1899DECAN   C818978  10.780   6.164   7.753  0.3992  0.1842  0.1902
 1899DECAN   C918979  10.860   6.032   7.756  0.2028  0.0540 -0.2013
 1899DECAN  C1018980  10.939   6.022   7.888  1.1152 -0.3365 -0.7659
 1900DECAN   C118981   6.224   8.915  11.526 -0.9407 -0.1818  0.5310
 1900DECAN   C218982   6.349   8.897  11.613 -0.1693  0.2134 -0.4763
 1900DECAN   C318983   6.489   8.922  11.555  0.4906 -0.6191  0.6935
 1900DECAN   C418984   6.504   8.855  11.417 -0.0195  0.2750  0.1886
 1900DECAN   C518985   6.620   8.913  11.334  0.0783 -0.4508 -0.1926
 1900DECAN   C618986   6.634   8.856  11.191 -0.0429 -0.1022 -0.3469
 1900DECAN   C718987   6.672   8.707  11.197 -0.0268 -0.0860  0.0294
 1900DECAN   C818988   6.662   8.639  11.059  0.1754 -0.3372  0.1383
 1900DECAN   C918989   6.522   8.665  10.999  0.2760 -0.0920  0.0084
 1900DECAN  C1018990   6.510   8.640  10.848 -0.2465  0.2572 -0.0081
 1901DECAN   C118991   6.018   2.880   3.718 -0.0955 -0.9354 -0.4045
 1901DECAN   C218992   5.873   2.846   3.759 -0.1999  0.5343  0.5034
 1901DECAN   C318993   5.860   2.732   3.861  0.2564  0.3194  0.3234
 1901DECAN   C418994   5.712   2.696   3.881  0.3236  0.1030  0.4358
 1901DECAN   C518995   5.670   2.574   3.965  0.4773 -0.0921  0.2282
 1901DECAN   C618996   5.516   2.561   3.966  0.4706 -0.0056  0.3111
 1901DECAN   C718997   5.479   2.440   4.053 -0.4781  0.4221  0.5132
 1901DECAN   C818998   5.521   2.446   4.202 -0.4018 -0.0607  0.5105
 1901DECAN   C918999   5.525   2.314   4.282  0.2728 -0.4199 -0.0979
 1901DECAN  C1019000   5.569   2.338   4.427 -0.6362 -0.3017  0.1651
 1902DECAN   C119001   8.595   1.885   6.507 -0.2505  0.2752  0.7193
 1902DECAN   C219002   8.540   1.744   6.480 -0.1237  0.4868 -0.7034
 1902DECAN   C319003   8.405   1.708   6.545 -0.1029  0.3583 -0.7320
 1902DECAN   C419004   8.362   1.568   6.498  0.3312  0.0107 -0.1210
 1902DECAN   C519005   8.219   1.533   6.544  0.3450  0.1124 -0.0027
 1902DECAN   C619006   8.179   1.387   6.516  0.2729  0.1491 -0.0913
 1902DECAN   C719007   8.134   1.348   6.374  0.0549  0.4223 -0.0981
 1902DECAN   C819008   8.050   1.461   6.312 -0.2860  0.3553  0.2378
 1902DECAN   C919009   8.006   1.428   6.168 -0.2672  0.2533  0.2558
 1902DECAN  C1019010   7.921   1.541   6.107  0.1816  0.1434 -0.5833
 1903DECAN   C119011   7.156  10.921   8.535  0.6752  0.0656 -0.0975
 1903DECAN   C219012   7.212  11.043   8.461  0.0666  0.6746  0.4301
 1903DECAN   C319013   7.311  11.001   8.350 -0.4973 -0.2813  0.2779
 1903DECAN   C419014   7.256  10.954   8.214  0.1049  0.4359 -0.2186
 1903DECAN   C519015   7.358  10.901   8.113  0.1845  0.0986  0.0369
 1903DECAN   C619016   7.409  10.759   8.141 -0.1590 -0.0467 -0.0713
 1903DECAN   C719017   7.525  10.704   8.056 -0.1929 -0.7704  0.3415
 1903DECAN   C819018   7.486  10.663   7.913 -0.0603 -0.3007  0.1700
 1903DECAN   C919019   7.596  10.596   7.829 -0.0280  0.0076 -0.0356
 1903DECAN  C1019020   7.535  10.546   7.696  0.1438  0.5481 -0.3162
 1904DECAN   C119021   7.117   3.689   6.545 -0.2729 -0.4452 -0.4316
 1904DECAN   C219022   7.187   3.568   6.610  0.0809  0.1169  0.2468
 1904DECAN   C319023   7.081   3.478   6.677 -0.1266  0.0725 -0.1411
 1904DECAN   C419024   7.130   3.337   6.715  0.3510  0.3418  0.2482
 1904DECAN   C519025   7.167   3.228   6.612  0.0742  0.1865  0.3135
 1904DECAN   C619026   7.196   3.096   6.686  0.0479 -0.0714 -0.1357
 1904DECAN   C719027   7.213   2.974   6.594 -0.4182 -0.0389 -0.2697
 1904DECAN   C819028   7.255   2.845   6.667 -0.5704  0.2514  0.3357
 1904DECAN   C919029   7.159   2.801   6.779 -0.3972 -0.6666  0.1359
 1904DECAN  C1019030   7.149   2.913   6.885  0.2088  0.1131 -0.6226
 1905DECAN   C119031  10.149   5.776  13.238 -0.0606 -0.0962  0.1686
 1905DECAN   C219032  10.096   5.806  13.379 -0.0593 -0.0954  0.1689
 1905DECAN   C319033  10.019   5.687  13.440  0.3089 -0.3278  0.1818
 1905DECAN   C419034   9.957   5.719  13.577 -0.4430 -0.0294 -0.2244
 1905DECAN   C519035   9.829   5.638  13.606 -0.4752  0.1059  0.0209
 1905DECAN   C619036   9.778   5.667  13.748 -0.4919  0.1371  0.0087
 1905DECAN   C719037   9.676   5.563  13.797  0.0613 -0.2043  0.4405
 1905DECAN   C819038   9.647   5.547  13.948 -0.5512  0.4809  0.3979
 1905DECAN   C919039   9.530   5.450  13.972 -0.6666  0.3710 -0.5402
 1905DECAN  C1019040   9.478   5.444  14.118 -0.2540 -0.3057 -0.4178
 1906DECAN   C119041   9.847   6.949  13.084 -0.6143  0.4021 -0.3797
 1906DECAN   C219042   9.775   6.992  12.955 -0.2958  0.1760 -0.6356
 1906DECAN   C319043   9.851   7.084  12.857  0.5762 -0.0884 -0.2138
 1906DECAN   C419044   9.792   7.086  12.715  0.1821 -0.6011 -0.0637
 1906DECAN   C519045   9.655   7.155  12.702  0.3828 -0.1747  0.0429
 1906DECAN   C619046   9.561   7.109  12.814  0.3248 -0.4695 -0.1262
 1906DECAN   C719047   9.417   7.080  12.767  0.1237 -0.1234  0.2728
 1906DECAN   C819048   9.427   6.960  12.672  0.7830 -0.0189  0.2058
 1906DECAN   C919049   9.298   6.925  12.595  1.0447 -0.1421 -0.1842
 1906DECAN  C1019050   9.319   6.823  12.482 -0.0720  0.2695 -0.7820
 1907DECAN   C119051   2.390  10.333   5.409 -0.4911  0.1823 -0.5404
 1907DECAN   C219052   2.459  10.337   5.546 -0.2838 -0.5622 -0.6166
 1907DECAN   C319053   2.600  10.275   5.548  0.0018  0.1011  0.2918
 1907DECAN   C419054   2.669  10.280   5.686  0.3009  0.8794  0.1179
 1907DECAN   C519055   2.815  10.242   5.715  0.3623  0.7009 -0.4063
 1907DECAN   C619056   2.830  10.222   5.867  0.1597 -0.2199 -0.5004
 1907DECAN   C719057   2.974  10.198   5.916  0.0677 -0.2559 -0.2421
 1907DECAN   C819058   2.964  10.125   6.051  0.1270 -0.0165 -0.1077
 1907DECAN   C919059   3.092  10.119   6.137  0.0319  0.7201  0.0903
 1907DECAN  C1019060   3.068  10.125   6.289  0.1125 -0.1144  0.1422
 1908DECAN   C119061   3.900   6.960   7.790  0.6054  0.4909 -0.3190
 1908DECAN   C219062   3.995   6.957   7.911  0.4677  0.1836 -0.2167
 1908DECAN   C319063   4.000   6.817   7.976  0.1096  0.1285 -0.3026
 1908DECAN   C419064   3.875   6.807   8.064  0.3681 -0.6540 -0.0136
 1908DECAN   C519065   3.891   6.707   8.180  0.4551 -0.0793  0.4776
 1908DECAN   C619066   3.785   6.706   8.292  0.0102  0.0478  0.0602
 1908DECAN   C719067   3.814   6.608   8.407  0.0332 -0.0246 -0.0075
 1908DECAN   C819068   3.933   6.659   8.490  0.3090 -0.0921 -0.3563
 1908DECAN   C919069   3.980   6.574   8.610 -0.2309  0.2434  0.1043
 1908DECAN  C1019070   4.078   6.649   8.702  0.0642 -0.2838  0.2235
 1909DECAN   C119071   6.379   3.948   3.838 -0.0371 -0.3400  0.2772
 1909DECAN   C219072   6.299   3.819   3.865  0.3910 -0.7131 -0.2435
 1909DECAN   C319073   6.163   3.837   3.934  0.5778  0.1385 -0.0961
 1909DECAN   C419074   6.160   3.899   4.075  0.3979  0.5870 -0.2940
 1909DECAN   C519075   6.020   3.887   4.138  0.4804  0.2752 -0.1686
 1909DECAN   C619076   6.025   3.876   4.291 -0.5793 -0.4929 -0.1724
 1909DECAN   C719077   5.901   3.858   4.380 -0.2268 -0.0539  0.4251
 1909DECAN   C819078   5.938   3.822   4.525 -0.1992  0.4879  0.5546
 1909DECAN   C919079   5.826   3.842   4.628 -0.6344  0.5396  0.0773
 1909DECAN  C1019080   5.867   3.807   4.773 -0.3964  0.1962 -0.0711
 1910DECAN   C119081   1.916   9.177   9.746 -0.1844  0.3730 -0.0344
 1910DECAN   C219082   1.988   9.193   9.611 -0.5101 -0.3622 -0.2970
 1910DECAN   C319083   1.879   9.231   9.508  0.0963  0.0214 -0.8002
 1910DECAN   C419084   1.744   9.166   9.541  0.0342  0.5702  0.0587
 1910DECAN   C519085   1.619   9.202   9.459 -0.0649 -0.1876 -0.1294
 1910DECAN   C619086   1.493   9.138   9.520 -0.1108  0.2790  0.2738
 1910DECAN   C719087   1.496   8.984   9.525 -0.6362  0.2677  0.2661
 1910DECAN   C819088   1.380   8.927   9.609 -0.8451  0.0780 -0.1470
 1910DECAN   C919089   1.393   8.774   9.615 -0.6543  0.0919 -0.2229
 1910DECAN  C1019090   1.277   8.693   9.674 -0.0178 -0.5901  0.1165
 1911DECAN   C119091   4.195  10.023  10.240  0.1007  0.2173  0.0684
 1911DECAN   C219092   4.159  10.025  10.390  0.0120  0.1248  0.0491
 1911DECAN   C319093   4.195  10.144  10.481  0.1423  0.2463 -0.1609
 1911DECAN   C419094   4.182  10.117  10.632 -0.0105 -0.4525 -0.2950
 1911DECAN   C519095   4.040  10.076  10.675  0.2420 -0.3047  0.7072
 1911DECAN   C619096   3.927  10.176  10.643 -0.0103 -0.8202 -0.0362
 1911DECAN   C719097   3.786  10.132  10.684 -0.4224  0.3013 -0.2246
 1911DECAN   C819098   3.771  10.117  10.837  0.6848 -0.2524 -0.1610
 1911DECAN   C919099   3.622  10.116  10.876  0.8482 -0.0039  0.4792
 1911DECAN  C1019100   3.592  10.084  11.024 -0.3588  0.2838  0.3066
 1912DECAN   C119101   7.032  10.384  13.076  0.3797 -0.2199 -0.7608
 1912DECAN   C219102   7.000  10.250  13.144  0.0192  0.2416 -0.0095
 1912DECAN   C319103   7.130  10.178  13.185 -0.3202 -0.6175 -0.4145
 1912DECAN   C419104   7.106  10.044  13.256  0.1696 -0.5735 -0.1592
 1912DECAN   C519105   7.085  10.064  13.407 -0.0653 -0.0209 -0.2643
 1912DECAN   C619106   6.940  10.100  13.444 -0.0860 -0.1529 -0.2150
 1912DECAN   C719107   6.912  10.127  13.593  0.8429  0.0847 -0.0730
 1912DECAN   C819108   6.761  10.124  13.624  0.7727 -0.1086 -0.4297
 1912DECAN   C919109   6.689   9.989  13.605 -0.0195  0.1608  0.5652
 1912DECAN  C1019110   6.729   9.880  13.706  0.1115 -0.3849 -0.0691
 1913DECAN   C119111   8.468   5.397  14.944  0.4266  0.2720  0.2276
 1913DECAN   C219112   8.513   5.542  14.916 -0.3677  0.4114 -0.3636
 1913DECAN   C319113   8.622   5.598  15.009 -0.6389  0.3705 -0.0197
 1913DECAN   C419114   8.683   5.725  14.948 -0.3522  0.1783 -0.1312
 1913DECAN   C519115   8.763   5.817  15.043 -0.2049 -0.2514  0.1665
 1913DECAN   C619116   8.763   5.959  14.983  0.5065 -0.2114  0.2598
 1913DECAN   C719117   8.864   6.058  15.045  0.8342 -0.2331 -0.2378
 1913DECAN   C819118   8.884   6.188  14.966 -0.0485  0.1611  0.1709
 1913DECAN   C919119   8.925   6.159  14.820 -0.0628  0.1535  0.1680
 1913DECAN  C1019120   8.817   6.101  14.726  0.1640  0.0615 -0.0375
 1914DECAN   C119121   3.178   9.918   3.824  0.5315  0.2790 -0.3978
 1914DECAN   C219122   3.284   9.812   3.857  0.1242 -0.0028  0.0147
 1914DECAN   C319123   3.250   9.666   3.823  0.6486 -0.1388  0.0574
 1914DECAN   C419124   3.335   9.564   3.902  0.2405 -0.2969  0.2989
 1914DECAN   C519125   3.288   9.420   3.876  0.0179 -0.1485 -0.1408
 1914DECAN   C619126   3.347   9.320   3.977 -0.1185 -0.2239 -0.1367
 1914DECAN   C719127   3.500   9.303   3.970 -0.0951 -0.0536 -0.0264
 1914DECAN   C819128   3.586   9.223   4.070  0.2568 -0.1372 -0.3931
 1914DECAN   C919129   3.538   9.078   4.084 -0.0166  0.0420  0.6038
 1914DECAN  C1019130   3.546   9.004   3.949  0.3740  1.0906  0.0456
 1915DECAN   C119131   7.562   4.077  13.578 -0.2093  0.0087  0.3927
 1915DECAN   C219132   7.410   4.054  13.577 -0.1409 -0.4478 -0.6835
 1915DECAN   C319133   7.371   3.973  13.701 -0.5150  0.3947 -0.2436
 1915DECAN   C419134   7.398   3.822  13.692  0.0369  0.4575  0.2892
 1915DECAN   C519135   7.324   3.757  13.573  0.5116  0.3051  0.0726
 1915DECAN   C619136   7.409   3.768  13.446  0.4006  0.7947  0.0392
 1915DECAN   C719137   7.506   3.649  13.428 -0.3102  0.0921  0.7843
 1915DECAN   C819138   7.650   3.690  13.394 -0.4392  0.0432  0.1768
 1915DECAN   C919139   7.734   3.766  13.499  0.1447 -0.2627 -0.0600
 1915DECAN  C1019140   7.795   3.675  13.607 -0.5247 -0.1565  0.4179
 1916DECAN   C119141   8.738   2.951   6.678  0.5484  0.4454 -0.1655
 1916DECAN   C219142   8.836   3.057   6.625  0.6386  0.6749  0.4516
 1916DECAN   C319143   8.763   3.166   6.543 -0.0497 -0.2680 -0.2081
 1916DECAN   C419144   8.855   3.281   6.496 -0.4543 -0.0234 -0.4009
 1916DECAN   C519145   8.769   3.363   6.398 -0.3125  0.0235 -0.4861
 1916DECAN   C619146   8.855   3.453   6.307 -0.3365  0.2425 -0.2964
 1916DECAN   C719147   8.920   3.571   6.381 -0.3259 -0.0924  0.2405
 1916DECAN   C819148   8.987   3.666   6.279 -0.1142 -0.5552 -0.0531
 1916DECAN   C919149   9.061   3.782   6.348 -0.3445 -0.0857 -0.5892
 1916DECAN  C1019150   9.149   3.863   6.252 -0.2301 -0.3197 -0.6827
 1917DECAN   C119151   4.851   8.082   4.203  0.3591 -0.0787 -0.2425
 1917DECAN   C219152   4.817   8.047   4.057 -0.0017 -0.2340 -0.1196
 1917DECAN   C319153   4.734   7.918   4.035  0.0373 -0.2916  0.0601
 1917DECAN   C419154   4.675   7.918   3.893 -0.2915 -0.3547  0.1965
 1917DECAN   C519155   4.790   7.907   3.791 -0.0297 -0.1121  0.4649
 1917DECAN   C619156   4.866   7.775   3.812 -0.0072 -0.2942 -0.6892
 1917DECAN   C719157   4.980   7.768   3.708  0.3380 -0.1251 -0.3266
 1917DECAN   C819158   5.066   7.640   3.719  0.3941 -0.0308  0.3935
 1917DECAN   C919159   5.161   7.624   3.839  0.4110 -0.2719  0.3473
 1917DECAN  C1019160   5.287   7.541   3.809  0.3882 -0.1638 -0.0652
 1918DECAN   C119161  10.515   7.125  13.934 -0.9140  0.2663  0.2057
 1918DECAN   C219162  10.515   6.990  14.008 -0.2250  0.0596 -0.1649
 1918DECAN   C319163  10.573   6.871  13.929 -0.0652 -0.1059  0.1952
 1918DECAN   C419164  10.475   6.811  13.826 -0.4107  0.3812  0.2370
 1918DECAN   C519165  10.349   6.754  13.893 -0.2405  0.4280  0.5968
 1918DECAN   C619166  10.235   6.772  13.792  0.1782 -0.0278  0.0400
 1918DECAN   C719167  10.226   6.917  13.741 -0.8744 -0.1261 -0.0876
 1918DECAN   C819168  10.288   6.951  13.604 -0.2705 -0.0788  0.1941
 1918DECAN   C919169  10.268   7.100  13.572 -0.0598 -0.0674  0.1121
 1918DECAN  C1019170  10.364   7.159  13.467 -0.1813 -0.5694 -0.2846
 1919DECAN   C119171   9.922   3.462   7.077  0.6617 -0.2578 -0.0855
 1919DECAN   C219172   9.935   3.605   7.132  0.3679 -0.1320 -0.3355
 1919DECAN   C319173  10.079   3.644   7.169  0.0709 -0.1549  0.8895
 1919DECAN   C419174  10.079   3.767   7.263 -0.9250  0.8175 -0.3387
 1919DECAN   C519175  10.056   3.710   7.404  0.1438  0.4982 -0.2809
 1919DECAN   C619176  10.044   3.796   7.531 -0.2443  0.2023 -0.1140
 1919DECAN   C719177  10.076   3.756   7.676 -0.6558  0.0948 -0.0515
 1919DECAN   C819178  10.095   3.880   7.766 -0.0973  0.0942 -0.1657
 1919DECAN   C919179  10.145   3.845   7.908 -0.3321 -0.3687 -0.1941
 1919DECAN  C1019180  10.166   3.969   7.997  0.1655  0.1278 -0.9921
 1920DECAN   C119181  10.323   1.388   9.626 -0.6214 -0.1449  0.4917
 1920DECAN   C219182  10.263   1.380   9.767  0.1884 -0.2625  0.8364
 1920DECAN   C319183  10.168   1.494   9.811 -0.5061 -0.2003 -0.7681
 1920DECAN   C419184  10.071   1.443   9.919  0.6122  0.2172  0.4603
 1920DECAN   C519185   9.974   1.545   9.981 -0.0589 -0.1316  0.0009
 1920DECAN   C619186   9.841   1.564   9.907 -0.2661 -0.4839  0.2796
 1920DECAN   C719187   9.831   1.696   9.828 -0.2742 -0.6301  0.0332
 1920DECAN   C819188   9.708   1.699   9.735 -0.3667 -0.0468  0.1693
 1920DECAN   C919189   9.728   1.823   9.647  0.3083  0.2010  0.6677
 1920DECAN  C1019190   9.616   1.848   9.545  0.8444 -0.1663 -0.0186
 1921DECAN   C119191   2.240   6.765  15.053  0.0834 -0.2855 -0.4990
 1921DECAN   C219192   2.328   6.701  15.162 -0.1048  0.1150 -0.1028
 1921DECAN   C319193   2.462   6.645  15.111  0.1224  0.0511  0.5587
 1921DECAN   C419194   2.561   6.760  15.087  0.0520  0.0144  0.0813
 1921DECAN   C519195   2.695   6.714  15.027 -0.2256 -0.8296  0.0941
 1921DECAN   C619196   2.796   6.646  15.121  0.0377 -0.2771  0.2188
 1921DECAN   C719197   2.932   6.615  15.055 -0.0323 -0.0906 -0.0148
 1921DECAN   C819198   3.000   6.738  14.992 -0.2980 -0.0192 -0.1626
 1921DECAN   C919199   3.124   6.698  14.911 -0.3446  0.1480 -0.3192
 1921DECAN  C1019200   3.182   6.804  14.817  0.4009 -0.0902 -0.1403
 1922DECAN   C119201   7.363  10.316   3.892  0.5622 -0.7753  0.2317
 1922DECAN   C219202   7.243  10.268   3.976  0.2608  0.0610  0.2856
 1922DECAN   C319203   7.236  10.336   4.114  0.5870 -0.0919  0.3787
 1922DECAN   C419204   7.215  10.485   4.080  0.1407 -0.1051  0.5879
 1922DECAN   C519205   7.087  10.507   3.997  0.2380  0.1204  0.4980
 1922DECAN   C619206   7.044  10.654   3.977 -0.4054 -0.1702 -0.3115
 1922DECAN   C719207   7.025  10.710   4.120 -0.2569  0.1579 -0.4207
 1922DECAN   C819208   6.905  10.633   4.178 -0.0858  0.1810 -0.0354
 1922DECAN   C919209   6.863  10.678   4.319 -0.2970 -0.1886  0.0216
 1922DECAN  C1019210   6.730  10.624   4.373 -0.5053 -0.0727 -0.3741
 1923DECAN   C119211  10.090   5.789  14.695 -0.5364  0.0805  0.0596
 1923DECAN   C219212  10.012   5.893  14.778  0.0751  0.0909  0.6293
 1923DECAN   C319213   9.861   5.866  14.771  0.0490  0.4380 -0.4557
 1923DECAN   C419214   9.786   5.988  14.828  0.1644  0.4111 -0.2458
 1923DECAN   C519215   9.636   5.958  14.843  0.2879 -0.1712 -0.1501
 1923DECAN   C619216   9.546   6.083  14.849 -0.2104 -0.5177 -0.4176
 1923DECAN   C719217   9.395   6.051  14.849 -0.2778 -0.1937 -0.1972
 1923DECAN   C819218   9.306   6.162  14.910  0.1146  0.0335 -0.0349
 1923DECAN   C919219   9.336   6.180  15.060 -0.2534 -0.1706  0.0623
 1923DECAN  C1019220   9.226   6.267  15.123 -0.2660 -0.0931 -0.0653
 1924DECAN   C119221  10.495   6.101   9.602  0.0174  0.0781  0.2751
 1924DECAN   C219222  10.615   6.008   9.633  0.1715  0.1335 -0.1515
 1924DECAN   C319223  10.601   5.866   9.574  0.3870  0.1122 -0.1478
 1924DECAN   C419224  10.596   5.871   9.420 -0.4916  0.4778 -0.1159
 1924DECAN   C519225  10.600   5.728   9.365 -0.3853  0.3763  0.1530
 1924DECAN   C619226  10.594   5.740   9.212 -0.1184  0.5112  0.1522
 1924DECAN   C719227  10.627   5.611   9.135 -0.2455  0.5947 -0.0444
 1924DECAN   C819228  10.561   5.485   9.195  0.2817  0.5079  0.3636
 1924DECAN   C919229  10.407   5.477   9.188  0.3156 -0.3487  0.5989
 1924DECAN  C1019230  10.333   5.594   9.254  0.8586 -0.0768  0.7356
 1925DECAN   C119231  10.430   5.410   7.232  0.4385  0.0188  0.9437
 1925DECAN   C219232  10.432   5.331   7.099  0.5847  0.5311  0.6375
 1925DECAN   C319233  10.506   5.196   7.106 -0.0173  0.1531 -0.2377
 1925DECAN   C419234  10.532   5.130   6.969 -0.2446 -0.1393 -0.1402
 1925DECAN   C519235  10.639   5.020   6.958  0.1193  0.2122 -0.1306
 1925DECAN   C619236  10.666   4.954   6.822 -0.3687 -0.1247 -0.0682
 1925DECAN   C719237  10.786   4.859   6.802 -0.0728  0.2504 -0.0821
 1925DECAN   C819238  10.771   4.769   6.678  0.1799 -0.0346  0.0918
 1925DECAN   C919239  10.863   4.646   6.675  0.3709  0.1106 -0.1019
 1925DECAN  C1019240  10.869   4.543   6.561  0.1369  0.3646 -0.3437
 1926DECAN   C119241   6.540   9.725   9.094  0.0179  0.0137  0.3149
 1926DECAN   C219242   6.573   9.651   9.225 -0.3459  0.7357  0.8242
 1926DECAN   C319243   6.464   9.549   9.261  0.3270 -0.2695  0.0886
 1926DECAN   C419244   6.317   9.595   9.270  0.3118 -0.2443 -0.2785
 1926DECAN   C519245   6.239   9.480   9.335 -0.2027  0.3239  0.1164
 1926DECAN   C619246   6.216   9.357   9.246 -0.5126  0.2253  0.3255
 1926DECAN   C719247   6.119   9.250   9.298  0.2432 -0.4120  0.4532
 1926DECAN   C819248   6.089   9.136   9.199  0.1714 -0.3904  0.4503
 1926DECAN   C919249   6.017   9.017   9.264 -0.8135 -0.0924 -0.0583
 1926DECAN  C1019250   5.988   8.901   9.167 -0.7829 -0.0073 -0.1688
 1927DECAN   C119251   4.855   2.370   9.376 -0.0485  0.2097 -0.1032
 1927DECAN   C219252   4.704   2.364   9.348  0.0151  0.1275 -0.4345
 1927DECAN   C319253   4.667   2.261   9.240 -0.1551 -0.5078  0.2195
 1927DECAN   C419254   4.716   2.315   9.104  0.1420 -0.1420  0.4705
 1927DECAN   C519255   4.687   2.220   8.987  0.2568 -0.0296  0.3497
 1927DECAN   C619256   4.770   2.091   9.002  0.2743 -0.0004  0.4981
 1927DECAN   C719257   4.731   1.976   8.907 -0.1041  0.2833  0.3073
 1927DECAN   C819258   4.593   1.913   8.937 -0.2172  0.4104  0.0566
 1927DECAN   C919259   4.577   1.770   8.881  1.1641  0.0517  0.5381
 1927DECAN  C1019260   4.592   1.759   8.728  0.4304  0.0798  0.4614
 1928DECAN   C119261   4.576   2.754  14.946  0.4357  0.0612  0.0242
 1928DECAN   C219262   4.500   2.867  15.018  0.1069 -0.2882  0.2309
 1928DECAN   C319263   4.581   2.997  15.005  0.0728 -0.2799  0.0995
 1928DECAN   C419264   4.521   3.108  15.092  0.0496 -0.5566  0.4356
 1928DECAN   C519265   4.378   3.151  15.052  0.4203  0.1939 -0.0851
 1928DECAN   C619266   4.275   3.045  15.094  0.3905  0.3724  0.2907
 1928DECAN   C719267   4.138   3.111  15.073  0.1181 -0.1783  0.3235
 1928DECAN   C819268   4.014   3.025  15.106  0.4493 -0.5206  0.6784
 1928DECAN   C919269   3.877   3.094  15.124  0.2280 -0.6860 -0.2855
 1928DECAN  C1019270   3.774   2.987  15.166  0.2332 -0.3863  0.5114
 1929DECAN   C119271   7.754   9.913   5.232  0.0499  0.1347  0.1440
 1929DECAN   C219272   7.813   9.898   5.091 -0.3059  0.5343 -0.0492
 1929DECAN   C319273   7.773   9.766   5.022  0.7508  0.0048  0.3252
 1929DECAN   C419274   7.801   9.636   5.100  0.2669 -0.4254 -0.2095
 1929DECAN   C519275   7.725   9.510   5.053 -0.2069 -0.1993 -0.0605
 1929DECAN   C619276   7.576   9.498   5.089 -0.3319 -0.5149 -0.6724
 1929DECAN   C719277   7.490   9.624   5.074  0.1332 -0.0617  0.3515
 1929DECAN   C819278   7.347   9.621   5.132  0.1121  0.8220  0.3591
 1929DECAN   C919279   7.258   9.746   5.120 -1.0595 -0.0045  0.1936
 1929DECAN  C1019280   7.242   9.796   4.975  0.0933  0.3365  0.1696
 1930DECAN   C119281   4.696   8.737   5.051 -0.2061  0.3583  0.3650
 1930DECAN   C219282   4.660   8.767   4.904 -0.2095 -0.2412  0.2402
 1930DECAN   C319283   4.576   8.663   4.827 -0.2045 -0.3031  0.3176
 1930DECAN   C419284   4.557   8.714   4.683  0.2237  0.5351  0.5473
 1930DECAN   C519285   4.678   8.746   4.594 -0.2261  0.5047 -0.0902
 1930DECAN   C619286   4.627   8.817   4.468 -0.2311  0.3345 -0.1846
 1930DECAN   C719287   4.529   8.935   4.484 -0.0391  0.4376  0.2229
 1930DECAN   C819288   4.455   9.003   4.368 -0.1529 -0.2069 -0.0881
 1930DECAN   C919289   4.537   9.122   4.314 -0.2979 -0.0786 -0.0296
 1930DECAN  C1019290   4.449   9.217   4.231 -0.6589 -0.5047 -0.1383
 1931DECAN   C119291   2.136   6.901  14.590  0.2997 -0.5791  0.1931
 1931DECAN   C219292   2.141   7.004  14.704  0.4013 -0.4040  0.0329
 1931DECAN   C319293   2.281   7.044  14.753  0.3781 -0.4070  0.1006
 1931DECAN   C419294   2.276   7.130  14.881 -0.2721  0.3909 -0.4521
 1931DECAN   C519295   2.187   7.254  14.857 -0.0744  0.5230 -0.5129
 1931DECAN   C619296   2.176   7.349  14.978 -0.3344 -0.2489  0.0832
 1931DECAN   C719297   2.100   7.479  14.944  0.0340  0.0326  0.3234
 1931DECAN   C819298   2.166   7.590  14.859 -0.1737 -0.3477 -0.3457
 1931DECAN   C919299   2.074   7.711  14.835  0.1066 -0.0253  0.1824
 1931DECAN  C1019300   2.139   7.833  14.767  0.7536 -0.3293  0.2443
 1932DECAN   C119301  10.148   3.255  11.121  0.2203  0.1287 -0.3568
 1932DECAN   C219302  10.025   3.202  11.198  0.5668 -0.0547  0.0768
 1932DECAN   C319303   9.923   3.316  11.215  0.5178 -0.1498  0.4362
 1932DECAN   C419304   9.803   3.278  11.304  0.0237 -0.6864 -0.4435
 1932DECAN   C519305   9.725   3.403  11.349  0.3688 -0.4914 -0.3790
 1932DECAN   C619306   9.625   3.370  11.462  0.7644 -0.1058  0.0868
 1932DECAN   C719307   9.525   3.485  11.480  0.3240 -0.5121  0.2705
 1932DECAN   C819308   9.448   3.454  11.610 -0.3077 -0.6615 -0.1344
 1932DECAN   C919309   9.327   3.542  11.643  0.2161 -0.1086  0.3416
 1932DECAN  C1019310   9.244   3.486  11.761  0.4942  0.2285  0.7001
 1933DECAN   C119311   6.483   1.858  12.706  0.1976 -0.1695 -0.4823
 1933DECAN   C219312   6.394   1.740  12.663 -0.3358 -0.0428  0.2400
 1933DECAN   C319313   6.257   1.729  12.731 -0.3242 -0.1449  0.2471
 1933DECAN   C419314   6.190   1.598  12.684  0.3536 -0.4354  0.0881
 1933DECAN   C519315   6.074   1.544  12.770  0.0052 -0.3790 -0.3451
 1933DECAN   C619316   5.999   1.422  12.714  0.3369 -0.6220 -0.2656
 1933DECAN   C719317   5.887   1.365  12.802  0.4059  0.3251  0.4499
 1933DECAN   C819318   5.851   1.219  12.768 -0.3464  0.5951  0.0390
 1933DECAN   C919319   5.755   1.167  12.877  0.1697 -0.3959  0.0357
 1933DECAN  C1019320   5.613   1.215  12.842 -0.0345 -0.3981  0.8592
 1934DECAN   C119321   9.497   0.251   9.688  0.1455  0.6373 -0.3229
 1934DECAN   C219322   9.453   0.349   9.798  0.3191  0.2686  0.0798
 1934DECAN   C319323   9.548   0.470   9.811  0.1142  0.4481 -0.0721
 1934DECAN   C419324   9.512   0.581   9.911 -0.7854  0.2077 -0.1253
 1934DECAN   C519325   9.464   0.555  10.055 -0.4870  0.1560 -0.0355
 1934DECAN   C619326   9.339   0.465  10.056 -0.6229  0.3411 -0.3391
 1934DECAN   C719327   9.265   0.453  10.190 -0.0813  0.7682  0.0040
 1934DECAN   C819328   9.134   0.372  10.184  0.3164  0.1416 -0.2263
 1934DECAN   C919329   9.066   0.357  10.321 -0.0331  0.1190 -0.4015
 1934DECAN  C1019330   9.151   0.259  10.404  0.0808  0.1244 -0.5118
 1935DECAN   C119331   5.903  10.261   6.429  0.2029 -0.3515 -0.0377
 1935DECAN   C219332   5.805  10.222   6.316  0.0887 -0.0925 -0.0274
 1935DECAN   C319333   5.858  10.123   6.211  0.1502 -0.0580 -0.0297
 1935DECAN   C419334   5.756  10.058   6.115  0.0941  0.0336 -0.0327
 1935DECAN   C519335   5.808   9.947   6.021 -0.5102 -0.4258  0.1707
 1935DECAN   C619336   5.706   9.895   5.918 -0.4708 -0.1840  0.0087
 1935DECAN   C719337   5.791   9.834   5.805 -0.2564  0.1474 -0.0095
 1935DECAN   C819338   5.722   9.718   5.731  0.1220 -0.3427  0.4039
 1935DECAN   C919339   5.601   9.760   5.646  0.4290 -0.0453  0.1137
 1935DECAN  C1019340   5.632   9.863   5.535  0.4695  0.5369  0.6612
 1936DECAN   C119341   9.734   0.683  10.881 -0.1396  0.1704  0.4511
 1936DECAN   C219342   9.676   0.593  10.771 -0.1730  0.8729 -0.1094
 1936DECAN   C319343   9.753   0.574  10.638 -0.2235  0.8232 -0.1323
 1936DECAN   C419344   9.654   0.581  10.520 -0.0695 -1.2727 -0.4353
 1936DECAN   C519345   9.724   0.546  10.388  0.5753  0.2930 -0.5301
 1936DECAN   C619346   9.763   0.399  10.369 -0.1294  0.0568 -0.1723
 1936DECAN   C719347   9.834   0.366  10.236 -0.1577 -0.0949 -0.1506
 1936DECAN   C819348   9.844   0.214  10.219  0.4984 -0.0976  0.2342
 1936DECAN   C919349   9.909   0.162  10.089 -0.0181  0.0439 -0.0806
 1936DECAN  C1019350   9.870   0.013  10.080 -0.3848  0.0908  0.6544
 1937DECAN   C119351   5.587   4.062   7.945  0.2539 -0.3211 -0.0742
 1937DECAN   C219352   5.461   4.096   7.864  0.1773  0.1803  0.2472
 1937DECAN   C319353   5.441   4.242   7.817  0.0937  0.2858  0.6100
 1937DECAN   C419354   5.416   4.335   7.937  0.0851 -0.2008  0.9896
 1937DECAN   C519355   5.273   4.317   7.993 -0.2093 -0.3366  0.2182
 1937DECAN   C619356   5.234   4.400   8.116  0.5185 -0.0435  0.2597
 1937DECAN   C719357   5.300   4.330   8.236 -0.0033 -0.2546  0.4296
 1937DECAN   C819358   5.445   4.281   8.216  0.0207 -0.0468  0.0843
 1937DECAN   C919359   5.498   4.179   8.318  0.1956 -0.0922 -0.0516
 1937DECAN  C1019360   5.650   4.163   8.298  0.0378 -0.7286 -0.7781
 1938DECAN   C119361   4.712   7.140  14.838 -0.1300 -0.2369 -0.0677
 1938DECAN   C219362   4.745   7.054  14.715  0.2627 -0.2436  0.0411
 1938DECAN   C319363   4.730   7.136  14.585  0.0771 -0.0097  0.2090
 1938DECAN   C419364   4.807   7.269  14.596 -0.4974  0.3018  0.5207
 1938DECAN   C519365   4.781   7.368  14.481  0.0286  0.0349  0.1652
 1938DECAN   C619366   4.813   7.310  14.343 -0.0157  0.1740  0.0954
 1938DECAN   C719367   4.679   7.273  14.276  0.0333  0.3813 -0.1157
 1938DECAN   C819368   4.688   7.183  14.152 -0.5612 -0.4341  0.4288
 1938DECAN   C919369   4.557   7.129  14.093 -0.3774 -0.0298 -0.3665
 1938DECAN  C1019370   4.475   7.049  14.196  0.0142 -0.0745 -0.0882
 1939DECAN   C119371   8.569   4.805  14.837  0.0406 -0.4145  0.4741
 1939DECAN   C219372   8.419   4.814  14.873  0.1655  0.4151  0.7981
 1939DECAN   C319373   8.385   4.832  15.022 -0.1333  0.2810  0.7449
 1939DECAN   C419374   8.389   4.697  15.096 -0.1860 -0.3282 -0.3518
 1939DECAN   C519375   8.268   4.609  15.057 -0.3558 -0.2482 -0.0042
 1939DECAN   C619376   8.138   4.663  15.118  0.1303 -0.1580  0.9768
 1939DECAN   C719377   8.011   4.579  15.094  0.0155  0.4116 -0.4719
 1939DECAN   C819378   7.896   4.680  15.110 -0.4063 -0.1313 -0.0391
 1939DECAN   C919379   7.760   4.606  15.111  0.0372 -0.9589 -0.0892
 1939DECAN  C1019380   7.643   4.693  15.063  0.4259 -0.1821  0.3297
 1940DECAN   C119381   5.997   1.776   7.195 -0.2238 -0.1954  0.0680
 1940DECAN   C219382   5.869   1.715   7.256 -0.1648 -0.0237  0.3656
 1940DECAN   C319383   5.880   1.563   7.275  0.4953 -0.0169  0.0927
 1940DECAN   C419384   5.831   1.484   7.152  0.5013 -0.1613  0.1827
 1940DECAN   C519385   5.707   1.548   7.086  0.5602 -0.3336 -0.0941
 1940DECAN   C619386   5.646   1.469   6.969 -0.2674  0.6505 -0.3404
 1940DECAN   C719387   5.736   1.465   6.844 -0.0247 -0.4895 -0.1374
 1940DECAN   C819388   5.754   1.599   6.771  0.1232  0.0779  0.9268
 1940DECAN   C919389   5.621   1.660   6.725  0.0906 -0.3224  0.4836
 1940DECAN  C1019390   5.637   1.793   6.648 -0.2321 -0.5912 -0.0580
 1941DECAN   C119391   3.195   6.200   7.153  0.3594 -0.0016 -0.6810
 1941DECAN   C219392   3.214   6.349   7.121  0.3537  0.0965 -0.2393
 1941DECAN   C319393   3.329   6.380   7.023  0.4463  0.3319 -0.0561
 1941DECAN   C419394   3.314   6.331   6.878  0.2744  0.1712  0.0158
 1941DECAN   C519395   3.318   6.177   6.876 -0.2201  0.1594 -0.2163
 1941DECAN   C619396   3.442   6.126   6.800 -0.2899  0.0346 -0.2472
 1941DECAN   C719397   3.464   5.975   6.826  0.0976  0.0237 -0.6365
 1941DECAN   C819398   3.467   5.936   6.975 -0.2513  0.2500 -0.5702
 1941DECAN   C919399   3.484   5.785   6.998 -0.1826  0.3596  0.1104
 1941DECAN  C1019400   3.468   5.728   7.140  0.0919  0.4848  0.1925
 1942DECAN   C119401   4.521   4.356   4.829  0.1200 -0.3832  0.5043
 1942DECAN   C219402   4.668   4.391   4.800 -0.0639  0.1222  0.1664
 1942DECAN   C319403   4.767   4.276   4.829 -0.1108 -0.1472 -0.7170
 1942DECAN   C419404   4.911   4.319   4.796 -0.0174 -0.0124 -0.1465
 1942DECAN   C519405   5.003   4.195   4.795  0.0324  0.0246 -0.1333
 1942DECAN   C619406   4.989   4.104   4.918  0.2510 -0.1018 -0.2001
 1942DECAN   C719407   4.845   4.069   4.962  0.3245  0.1118  0.2195
 1942DECAN   C819408   4.838   3.981   5.088  0.5875 -0.3287 -0.0709
 1942DECAN   C919409   4.943   4.015   5.195  0.3930 -0.2576  0.0981
 1942DECAN  C1019410   4.928   3.916   5.312 -0.0063 -0.2638  0.0427
 1943DECAN   C119411   5.099   7.593  11.195  0.1144 -0.4282  0.3907
 1943DECAN   C219412   5.164   7.638  11.328 -0.0936 -0.3001  0.4484
 1943DECAN   C319413   5.314   7.673  11.325 -0.1491 -0.0842  0.0810
 1943DECAN   C419414   5.371   7.699  11.465 -0.3868  0.3113  0.1055
 1943DECAN   C519415   5.523   7.679  11.477 -0.4041 -0.1854 -0.4710
 1943DECAN   C619416   5.559   7.763  11.601 -0.3281 -0.6986 -0.1395
 1943DECAN   C719417   5.498   7.704  11.730 -0.5084  0.4378  0.3059
 1943DECAN   C819418   5.344   7.703  11.734 -0.5105  0.4238  0.2288
 1943DECAN   C919419   5.275   7.649  11.861 -0.6157 -0.1133 -0.0582
 1943DECAN  C1019420   5.123   7.658  11.839 -0.5336  0.2743 -0.4817
 1944DECAN   C119421   1.316  10.722   8.101 -0.0179  0.0004  0.1039
 1944DECAN   C219422   1.214  10.734   7.986 -0.0148  0.1332  0.1160
 1944DECAN   C319423   1.224  10.635   7.869  0.2652  0.2762  0.0195
 1944DECAN   C419424   1.362  10.599   7.810  0.2917  0.3409  0.0409
 1944DECAN   C519425   1.373  10.470   7.727 -0.5342  0.3364 -0.0758
 1944DECAN   C619426   1.349  10.336   7.798  0.0567  0.0764 -0.3589
 1944DECAN   C719427   1.217  10.338   7.877 -0.1008 -0.5040 -0.5996
 1944DECAN   C819428   1.155  10.208   7.930  0.0643 -0.2968  0.1123
 1944DECAN   C919429   1.142  10.105   7.816  0.8572 -0.3855  0.0974
 1944DECAN  C1019430   1.126   9.955   7.846 -0.2803 -0.3206 -0.1620
 1945DECAN   C119431   2.485  10.125   9.037 -0.5074  0.1218  0.0664
 1945DECAN   C219432   2.506   9.987   8.973  0.1548  0.2224  0.0617
 1945DECAN   C319433   2.656   9.956   8.956  0.1525  0.3222 -0.1433
 1945DECAN   C419434   2.702   9.822   8.897  0.0419  0.1939  0.0641
 1945DECAN   C519435   2.848   9.789   8.932  0.1822  0.2556 -0.4587
 1945DECAN   C619436   2.870   9.653   8.864  0.1423  0.1501 -0.2590
 1945DECAN   C719437   3.016   9.604   8.867  0.0987  0.0309 -0.0109
 1945DECAN   C819438   3.085   9.597   9.005 -0.0884  0.1990  0.0920
 1945DECAN   C919439   3.202   9.498   9.023 -0.0387  0.3660  0.7117
 1945DECAN  C1019440   3.264   9.497   9.163  0.2160  0.9527  0.6075
 1946DECAN   C119441   3.929  10.501   8.232  0.2045  0.6076  0.0870
 1946DECAN   C219442   4.056  10.478   8.316  0.2292 -0.1643 -0.1538
 1946DECAN   C319443   4.067  10.334   8.370 -0.4182  0.1979  0.9739
 1946DECAN   C419444   4.198  10.317   8.449  0.5420 -0.2971 -0.6757
 1946DECAN   C519445   4.208  10.178   8.515  0.4685  0.0635  0.1070
 1946DECAN   C619446   4.095  10.165   8.619 -0.0481  0.3208 -0.4170
 1946DECAN   C719447   3.964  10.179   8.540 -0.4113  0.4080  0.1967
 1946DECAN   C819448   3.847  10.130   8.627 -0.0273 -0.1555  0.4022
 1946DECAN   C919449   3.842   9.978   8.651  0.0897 -0.1773  0.2859
 1946DECAN  C1019450   3.726   9.921   8.734  0.0157 -0.3865  0.0423
 1947DECAN   C119451   5.640  10.730   5.533 -0.2002  0.0117 -0.4085
 1947DECAN   C219452   5.669  10.579   5.521 -0.1779 -0.0261  0.1126
 1947DECAN   C319453   5.562  10.487   5.582 -0.4311  0.1932 -0.0010
 1947DECAN   C419454   5.605  10.340   5.579 -0.3941  0.2133 -0.5455
 1947DECAN   C519455   5.562  10.250   5.696 -0.3063 -0.0893 -0.7434
 1947DECAN   C619456   5.412  10.244   5.730 -0.1495 -0.3784 -0.0803
 1947DECAN   C719457   5.388  10.167   5.861  0.6138 -0.6001 -0.0643
 1947DECAN   C819458   5.395  10.259   5.984  0.5977 -0.4097 -0.2052
 1947DECAN   C919459   5.357  10.184   6.114  0.0343 -0.2733 -0.2887
 1947DECAN  C1019460   5.386  10.263   6.243  0.0965  0.0100 -0.4740
 1948DECAN   C119461   9.662   1.635   5.356  0.3503  0.0719  0.1191
 1948DECAN   C219462   9.744   1.669   5.230 -0.0784  0.0417 -0.1732
 1948DECAN   C319463   9.789   1.540   5.161 -0.0117  0.3966 -0.8016
 1948DECAN   C419464   9.877   1.449   5.249 -0.3141  0.4489 -0.4456
 1948DECAN   C519465   9.918   1.315   5.185 -0.1573  0.0334  0.5034
 1948DECAN   C619466   9.800   1.217   5.171 -0.0220 -0.0966  0.2639
 1948DECAN   C719467   9.812   1.099   5.072  0.0575 -0.0136  0.1751
 1948DECAN   C819468   9.695   1.000   5.086 -0.1967  0.1991 -0.4113
 1948DECAN   C919469   9.718   0.873   5.002  0.2349 -0.0501  0.0789
 1948DECAN  C1019470   9.697   0.890   4.851 -0.1481  0.6362  0.2075
 1949DECAN   C119471   4.839   2.683  13.454 -0.3811  0.2471 -0.1513
 1949DECAN   C219472   4.891   2.803  13.537 -0.3317  0.0172  0.1523
 1949DECAN   C319473   4.969   2.884  13.432 -0.5721 -0.5827 -0.5083
 1949DECAN   C419474   5.021   3.022  13.478 -0.2393 -0.7157 -0.4806
 1949DECAN   C519475   5.116   3.089  13.377 -0.2565  0.1402  0.0626
 1949DECAN   C619476   5.174   3.225  13.419  0.4155 -0.1268  0.0080
 1949DECAN   C719477   5.297   3.268  13.336  0.2639 -0.4360 -0.3818
 1949DECAN   C819478   5.405   3.160  13.351  0.1267 -0.5695 -0.3457
 1949DECAN   C919479   5.519   3.165  13.248  0.6046  0.0678  0.2038
 1949DECAN  C1019480   5.592   3.301  13.243  0.2755  0.2314 -0.2516
 1950DECAN   C119481   8.066   4.573  11.490 -0.2365 -0.7288  0.1912
 1950DECAN   C219482   8.004   4.511  11.364  0.1754 -0.7125 -0.0197
 1950DECAN   C319483   7.881   4.598  11.329  0.8191  0.1512 -0.1823
 1950DECAN   C419484   7.915   4.738  11.275  0.3419 -0.0048 -0.8913
 1950DECAN   C519485   7.812   4.813  11.188 -0.0426  0.0728 -0.3719
 1950DECAN   C619486   7.763   4.746  11.059 -0.0034 -0.1440 -0.2736
 1950DECAN   C719487   7.862   4.748  10.941  0.0779  0.0710 -0.2027
 1950DECAN   C819488   7.840   4.642  10.831 -0.5327  0.1320 -0.1391
 1950DECAN   C919489   7.962   4.624  10.740 -0.3210 -0.0176  0.1693
 1950DECAN  C1019490   8.085   4.581  10.822 -0.2267  0.1894  0.1386
 1951DECAN   C119491   8.915   6.315  12.381 -0.8422  0.1007 -0.0752
 1951DECAN   C219492   8.872   6.188  12.457  0.2478 -0.4198 -0.3056
 1951DECAN   C319493   8.983   6.180  12.563  0.3226  0.0312 -0.3467
 1951DECAN   C419494   8.983   6.051  12.647 -0.1190  0.2347 -0.0295
 1951DECAN   C519495   9.070   6.055  12.775 -0.5838  0.1026  0.2914
 1951DECAN   C619496   9.076   5.920  12.848  0.1023  0.1433  0.3120
 1951DECAN   C719497   9.197   5.925  12.943 -0.0286  0.4704  0.4630
 1951DECAN   C819498   9.215   6.044  13.039  0.5108  0.3921  0.4639
 1951DECAN   C919499   9.092   6.096  13.116  0.1315 -0.2302  0.2792
 1951DECAN  C1019500   9.043   6.024  13.243  0.1473 -0.6356  0.0602
 1952DECAN   C119501   4.047   1.313  12.444  0.5185  0.2169 -0.0259
 1952DECAN   C219502   4.029   1.466  12.454  0.4734  0.2093  0.0113
 1952DECAN   C319503   4.052   1.541  12.321  0.9838  0.2343  0.1111
 1952DECAN   C419504   4.006   1.687  12.336  0.0506 -0.0175 -0.2189
 1952DECAN   C519505   3.869   1.715  12.271 -0.2348 -0.2336  0.2868
 1952DECAN   C619506   3.822   1.861  12.279 -0.0739 -0.1470 -0.2972
 1952DECAN   C719507   3.694   1.891  12.198 -0.3268  0.0261  0.1585
 1952DECAN   C819508   3.657   2.040  12.194  0.0187  0.1196  0.3754
 1952DECAN   C919509   3.533   2.086  12.114  0.1430 -0.3188 -0.0734
 1952DECAN  C1019510   3.525   2.030  11.971 -0.1965 -0.0694 -0.1521
 1953DECAN   C119511   3.003   0.432  12.424  0.2299 -0.2745 -0.0466
 1953DECAN   C219512   3.106   0.338  12.489  0.0025 -0.2461  0.3649
 1953DECAN   C319513   3.218   0.283  12.398  0.1783 -0.1675  0.5322
 1953DECAN   C419514   3.330   0.386  12.375  0.0872 -0.1113  0.3299
 1953DECAN   C519515   3.283   0.514  12.303  0.5895  0.2070  0.5575
 1953DECAN   C619516   3.395   0.618  12.292 -0.1998  1.0353  0.1808
 1953DECAN   C719517   3.370   0.715  12.175  0.2531  0.8975 -0.0346
 1953DECAN   C819518   3.493   0.800  12.142  0.9315  0.0160  0.1753
 1953DECAN   C919519   3.448   0.909  12.042 -0.0339 -0.4272  0.1162
 1953DECAN  C1019520   3.342   1.004  12.100  0.2409  0.0156 -0.0989
 1954DECAN   C119521   1.601   5.018  10.445 -0.3167  0.1073  0.0889
 1954DECAN   C219522   1.658   5.071  10.312 -0.2571 -0.1120  0.0255
 1954DECAN   C319523   1.791   5.149  10.305 -0.2101 -0.1957 -0.0068
 1954DECAN   C419524   1.814   5.198  10.161 -0.0753  0.4841  0.2423
 1954DECAN   C519525   1.688   5.274  10.116 -0.5184 -0.4072 -0.0499
 1954DECAN   C619526   1.700   5.325   9.971 -0.1192  0.4528  0.2782
 1954DECAN   C719527   1.571   5.375   9.903 -0.3533 -0.1008  0.3076
 1954DECAN   C819528   1.613   5.423   9.762 -0.0392  0.1371  0.4791
 1954DECAN   C919529   1.496   5.478   9.679  0.1448  0.6316  0.5473
 1954DECAN  C1019530   1.537   5.527   9.539 -0.6857 -0.2875 -0.0368
 1955DECAN   C119531   2.139   5.718  11.869  0.1167 -0.5920 -0.4276
 1955DECAN   C219532   2.218   5.586  11.875  0.3828 -0.4312 -0.4088
 1955DECAN   C319533   2.242   5.533  11.733  0.1784 -0.1293 -0.5552
 1955DECAN   C419534   2.104   5.494  11.677 -0.3421  0.3069  0.3927
 1955DECAN   C519535   2.113   5.445  11.531 -0.2349 -0.3781  0.6255
 1955DECAN   C619536   1.969   5.432  11.477 -0.0735  0.8487 -0.1491
 1955DECAN   C719537   1.958   5.369  11.337  0.5185 -0.6963  0.4714
 1955DECAN   C819538   1.812   5.380  11.288  0.7470  0.1037 -0.0532
 1955DECAN   C919539   1.788   5.314  11.151 -0.4742 -0.0476  0.2278
 1955DECAN  C1019540   1.638   5.286  11.127 -0.4500  0.0450 -0.0405
 1956DECAN   C119541  10.281   2.334   6.059 -0.4625  0.2858  0.1740
 1956DECAN   C219542  10.329   2.477   6.087  0.1331  0.0146  0.5666
 1956DECAN   C319543  10.286   2.585   5.986  0.0279 -0.5629 -0.0128
 1956DECAN   C419544  10.340   2.726   6.018 -0.6702 -0.4416  0.6623
 1956DECAN   C519545  10.267   2.850   5.963  0.4562  0.1013  0.3811
 1956DECAN   C619546  10.274   2.856   5.809  0.1819 -0.1059  0.3614
 1956DECAN   C719547  10.206   2.979   5.746  0.3495 -0.2357 -0.0740
 1956DECAN   C819548  10.053   2.983   5.758  0.3786  0.0436  0.2131
 1956DECAN   C919549   9.982   3.091   5.674 -0.0558 -0.0455  0.4603
 1956DECAN  C1019550   9.829   3.083   5.692 -0.0656 -0.8138  0.0968
 1957DECAN   C119551   6.472   6.921  10.721  0.4029  0.7358 -0.4108
 1957DECAN   C219552   6.394   6.839  10.617  0.2981 -0.2107  0.4023
 1957DECAN   C319553   6.240   6.843  10.627  0.2609  0.2359 -0.2414
 1957DECAN   C419554   6.169   6.722  10.563  0.1600  0.6635 -0.9354
 1957DECAN   C519555   6.019   6.728  10.527 -0.0401  0.1753 -0.1897
 1957DECAN   C619556   5.961   6.608  10.451 -0.2380  0.1404  0.0149
 1957DECAN   C719557   5.807   6.614  10.457 -0.2470 -0.2054  0.1542
 1957DECAN   C819558   5.738   6.476  10.446  0.1544 -0.3896 -0.0680
 1957DECAN   C919559   5.590   6.503  10.479  0.4465  0.4991  0.5825
 1957DECAN  C1019560   5.579   6.507  10.632  0.0690 -0.2160  0.5768
 1958DECAN   C119561  10.207   0.550  12.708 -0.0861 -0.2418 -0.0439
 1958DECAN   C219562  10.187   0.555  12.861  0.2985 -0.7064  0.0232
 1958DECAN   C319563  10.261   0.669  12.933 -0.2263 -0.3197 -0.0417
 1958DECAN   C419564  10.188   0.804  12.949  0.5236  0.0719  0.1295
 1958DECAN   C519565  10.253   0.920  13.027  0.5149  0.3823 -0.3241
 1958DECAN   C619566  10.188   1.052  12.983  0.1296  0.4834  0.5409
 1958DECAN   C719567  10.255   1.164  13.066  0.1378  0.5766  0.4086
 1958DECAN   C819568  10.224   1.150  13.216  0.3367  0.2575  0.4219
 1958DECAN   C919569  10.299   1.250  13.306  0.6536  0.1921  0.2319
 1958DECAN  C1019570  10.297   1.196  13.450  0.2819 -0.0191  0.1496
 1959DECAN   C119571   2.312   4.319   8.198  0.3149  0.3166 -0.1050
 1959DECAN   C219572   2.328   4.333   8.045  0.1852 -0.0636 -0.1553
 1959DECAN   C319573   2.448   4.425   8.016 -0.1657  0.3951 -0.1474
 1959DECAN   C419574   2.416   4.574   8.041 -0.6669  0.2690 -0.0283
 1959DECAN   C519575   2.543   4.652   8.001 -0.4979  0.1781  0.3318
 1959DECAN   C619576   2.526   4.803   7.976 -0.4022  0.1457  0.0778
 1959DECAN   C719577   2.510   4.831   7.825 -0.0862  0.0503  0.0257
 1959DECAN   C819578   2.488   4.981   7.798 -0.0252 -0.0237 -0.4383
 1959DECAN   C919579   2.339   5.019   7.805 -0.0032 -0.0587  0.2594
 1959DECAN  C1019580   2.319   5.165   7.851  0.1403 -0.0361  0.2505
 1960DECAN   C119581   4.207   3.156   4.834 -0.4644 -0.3679 -0.2580
 1960DECAN   C219582   4.092   3.214   4.918 -0.2291 -0.5594  0.1990
 1960DECAN   C319583   4.135   3.241   5.064 -0.1185  0.1518  0.0354
 1960DECAN   C419584   4.028   3.311   5.149  0.1492  0.7229 -0.0858
 1960DECAN   C519585   3.895   3.234   5.156  0.0993  0.8378  0.2470
 1960DECAN   C619586   3.814   3.281   5.278 -0.5469  0.4101 -0.0099
 1960DECAN   C719587   3.671   3.225   5.295 -0.4446  0.1678  0.0487
 1960DECAN   C819588   3.615   3.264   5.433  0.0417 -0.1442  0.3376
 1960DECAN   C919589   3.607   3.417   5.450 -0.3440 -0.1249 -0.0141
 1960DECAN  C1019590   3.531   3.468   5.573  0.0253  0.1373  0.1080
 1961DECAN   C119591   3.499   9.781   5.398  0.1777 -0.4815  0.0884
 1961DECAN   C219592   3.429   9.812   5.532 -0.1953 -0.5240 -0.0972
 1961DECAN   C319593   3.467   9.950   5.588 -0.3717 -0.6444  0.3267
 1961DECAN   C419594   3.381   9.998   5.706  0.2458 -0.7236  0.8108
 1961DECAN   C519595   3.402  10.147   5.738 -0.0226 -0.6375  0.5871
 1961DECAN   C619596   3.336  10.202   5.866  0.0764  0.2971  0.2499
 1961DECAN   C719597   3.305  10.353   5.862 -0.4241  0.2019  0.3711
 1961DECAN   C819598   3.273  10.411   5.723  0.1827  0.0586  0.1653
 1961DECAN   C919599   3.386  10.401   5.620  0.3904  0.1898  0.3786
 1961DECAN  C1019600   3.325  10.438   5.484 -0.6022 -0.0168  0.7615
 1962DECAN   C119601   8.652   0.627  13.847 -0.1246 -0.7016  0.1467
 1962DECAN   C219602   8.786   0.683  13.896 -0.9226  0.8468  0.6388
 1962DECAN   C319603   8.868   0.585  13.982  0.1677  0.4928 -0.7606
 1962DECAN   C419604   9.021   0.602  13.985  0.2792 -0.5164  0.2981
 1962DECAN   C519605   9.083   0.590  13.844  0.2278 -0.3244  0.2580
 1962DECAN   C619606   9.100   0.452  13.780  0.3718 -0.1498 -0.0812
 1962DECAN   C719607   9.188   0.361  13.867 -0.0879  0.0515  0.5981
 1962DECAN   C819608   9.124   0.300  13.993 -0.4932 -0.4692  0.1445
 1962DECAN   C919609   9.230   0.215  14.067 -0.4768  0.0104  0.6771
 1962DECAN  C1019610   9.317   0.297  14.164  0.0927  0.3817 -0.1422
 1963DECAN   C119611   2.026   9.224  10.822 -0.2766 -0.5400  0.4484
 1963DECAN   C219612   1.899   9.251  10.905 -0.0133  0.8347  0.4296
 1963DECAN   C319613   1.770   9.247  10.821 -0.0758  1.0681  0.5139
 1963DECAN   C419614   1.669   9.145  10.877  0.4011  0.7442  0.7906
 1963DECAN   C519615   1.541   9.140  10.792  0.6758 -0.1046  0.4056
 1963DECAN   C619616   1.447   9.021  10.817  0.5982 -0.3001 -0.7735
 1963DECAN   C719617   1.344   8.999  10.704  0.3686 -0.1435 -0.5957
 1963DECAN   C819618   1.271   8.865  10.722 -0.1023  0.2035  0.1125
 1963DECAN   C919619   1.121   8.853  10.689 -0.2412  0.1487  0.7412
 1963DECAN  C1019620   1.080   8.708  10.723  0.3848 -0.1579  0.2105
 1964DECAN   C119621   5.541   9.396  14.982 -0.0984  0.4362  0.5787
 1964DECAN   C219622   5.522   9.264  14.905  0.1045  0.6722  0.1173
 1964DECAN   C319623   5.553   9.269  14.755  0.7227 -0.3047  0.1988
 1964DECAN   C419624   5.553   9.130  14.687  0.1115  0.1111 -0.6781
 1964DECAN   C519625   5.630   9.031  14.776  0.0083  0.3313 -0.3406
 1964DECAN   C619626   5.657   8.904  14.693  0.0955  0.1596 -0.0537
 1964DECAN   C719627   5.729   8.940  14.562 -0.2477  0.0444 -0.2756
 1964DECAN   C819628   5.744   8.822  14.464  0.5976  0.1782 -0.3139
 1964DECAN   C919629   5.797   8.693  14.529  0.5392  0.3777  0.1304
 1964DECAN  C1019630   5.808   8.581  14.424 -0.5590 -0.0288  0.4281
 1965DECAN   C119631   7.449   6.144   8.895  0.7533  0.0903 -0.0549
 1965DECAN   C219632   7.356   6.259   8.939 -0.1609 -0.7060  0.1011
 1965DECAN   C319633   7.377   6.293   9.088  0.1802  0.2204 -0.1567
 1965DECAN   C419634   7.322   6.424   9.148 -0.2973 -0.0707  0.0450
 1965DECAN   C519635   7.375   6.556   9.088 -0.3229 -0.0565  0.0543
 1965DECAN   C619636   7.527   6.581   9.084 -0.2590 -0.4834 -0.2318
 1965DECAN   C719637   7.594   6.554   8.948  0.4963  0.0519  0.0281
 1965DECAN   C819638   7.559   6.657   8.838 -0.8229 -0.4295 -0.0243
 1965DECAN   C919639   7.601   6.611   8.698 -0.7810 -0.4725  0.0029
 1965DECAN  C1019640   7.571   6.711   8.585  0.8754 -0.0205 -0.0679
 1966DECAN   C119641   9.529   4.938  12.321 -0.4138 -0.3849 -0.2075
 1966DECAN   C219642   9.473   4.914  12.462  0.0018  0.7838  0.1620
 1966DECAN   C319643   9.356   4.815  12.457  0.3192  0.3999  0.2678
 1966DECAN   C419644   9.277   4.778  12.585 -0.4875  0.4252 -0.2158
 1966DECAN   C519645   9.161   4.677  12.574  0.1657 -0.3898  0.2521
 1966DECAN   C619646   9.097   4.648  12.710 -0.4881  0.1899  0.0738
 1966DECAN   C719647   8.980   4.548  12.698 -0.0050 -0.3796  0.0936
 1966DECAN   C819648   8.859   4.599  12.617  0.2077  0.0172  0.0221
 1966DECAN   C919649   8.731   4.513  12.616 -0.1188  0.5040 -0.4601
 1966DECAN  C1019650   8.627   4.576  12.522 -0.6726 -0.2802 -0.3780
 1967DECAN   C119651   7.000   0.945  11.179 -0.4136 -0.7067  0.2399
 1967DECAN   C219652   6.885   1.024  11.244 -0.2797  0.3481 -0.7755
 1967DECAN   C319653   6.773   0.927  11.286  0.3647 -0.0128  0.1283
 1967DECAN   C419654   6.825   0.809  11.370 -0.0666 -0.3387 -0.0597
 1967DECAN   C519655   6.935   0.726  11.301 -0.6128 -0.5946 -0.6406
 1967DECAN   C619656   7.009   0.622  11.387 -0.3741  0.1878  0.1127
 1967DECAN   C719657   7.117   0.540  11.314 -0.6606 -0.0899  0.0001
 1967DECAN   C819658   7.070   0.445  11.202  0.4278 -0.6043 -0.0295
 1967DECAN   C919659   7.188   0.351  11.168  0.8969 -0.0094 -0.0605
 1967DECAN  C1019660   7.151   0.219  11.098 -0.0279  0.4332 -0.4351
 1968DECAN   C119661   5.001   4.140   7.629  0.0743 -0.6969 -0.6604
 1968DECAN   C219662   5.140   4.195   7.589  0.2186 -0.1914  0.5009
 1968DECAN   C319663   5.220   4.095   7.504  0.0261  0.2612 -0.2220
 1968DECAN   C419664   5.137   4.019   7.399 -0.3407  0.2999  0.0367
 1968DECAN   C519665   5.029   3.923   7.450 -0.0803  0.0335  0.0913
 1968DECAN   C619666   4.971   3.828   7.343  0.2047 -0.5063  0.4128
 1968DECAN   C719667   4.901   3.703   7.400 -0.1769 -0.5311 -0.1073
 1968DECAN   C819668   4.862   3.584   7.311 -0.9905 -0.0572 -0.3961
 1968DECAN   C919669   4.781   3.471   7.378 -0.5520 -0.2601 -0.2053
 1968DECAN  C1019670   4.779   3.338   7.300 -0.4508  0.2890 -1.1651
 1969DECAN   C119671   9.328   5.487  13.298  0.5736 -0.5064 -0.5497
 1969DECAN   C219672   9.408   5.612  13.256  0.0092  0.1848  0.3634
 1969DECAN   C319673   9.504   5.644  13.372  0.5416 -0.3976  0.0927
 1969DECAN   C419674   9.546   5.792  13.387  0.6510 -0.4220  0.0282
 1969DECAN   C519675   9.608   5.837  13.254 -0.0834  0.1265 -0.1338
 1969DECAN   C619676   9.534   5.789  13.128  0.8656 -0.2138 -0.5701
 1969DECAN   C719677   9.601   5.840  12.999  0.1749  0.3747 -0.7001
 1969DECAN   C819678   9.547   5.773  12.871  0.2970 -0.4324 -0.3338
 1969DECAN   C919679   9.635   5.801  12.748  0.3971 -0.4226 -0.2600
 1969DECAN  C1019680   9.575   5.737  12.621  0.0109  0.0879 -0.3397
 1970DECAN   C119681  10.291   8.951   9.739 -0.3605 -0.2032  0.3541
 1970DECAN   C219682  10.303   8.835   9.639 -0.0589  0.3246 -0.2239
 1970DECAN   C319683  10.444   8.776   9.629 -0.3396 -0.6146  1.1746
 1970DECAN   C419684  10.461   8.635   9.569 -0.4164 -0.1189 -0.0286
 1970DECAN   C519685  10.363   8.539   9.639 -0.7551  0.3720  0.1768
 1970DECAN   C619686  10.335   8.402   9.576  0.0222  0.1493  0.3112
 1970DECAN   C719687  10.282   8.422   9.433  0.0166  0.4849  0.3608
 1970DECAN   C819688  10.291   8.287   9.359  0.1138  0.9631 -0.5202
 1970DECAN   C919689  10.258   8.276   9.209 -0.3992 -0.0741 -0.3374
 1970DECAN  C1019690  10.284   8.131   9.163  0.8029 -0.1835  0.6234
 1971DECAN   C119691   6.148   3.076   7.307 -0.0662 -0.2227 -0.7209
 1971DECAN   C219692   6.021   3.136   7.244 -0.3441 -0.1703 -0.1107
 1971DECAN   C319693   6.039   3.200   7.105 -0.0100  0.1689  0.0841
 1971DECAN   C419694   5.915   3.236   7.020  0.1390 -0.2535 -0.3156
 1971DECAN   C519695   5.944   3.255   6.870 -0.6560  0.3383 -0.3981
 1971DECAN   C619696   5.996   3.137   6.786 -0.2256  0.2685 -0.0380
 1971DECAN   C719697   6.011   3.167   6.636 -0.3795  0.1454 -0.0789
 1971DECAN   C819698   6.078   3.050   6.561 -0.2973  0.3130 -0.2682
 1971DECAN   C919699   6.143   3.075   6.424  0.2499  0.0706 -0.0566
 1971DECAN  C1019700   6.174   2.939   6.357  0.1596 -0.2005  0.4465
 1972DECAN   C119701   7.086   5.052  12.368  1.0608  0.1053  0.3006
 1972DECAN   C219702   7.054   4.902  12.350  0.1127  0.2916  0.4031
 1972DECAN   C319703   6.910   4.865  12.311  0.3469 -0.2731  0.0571
 1972DECAN   C419704   6.881   4.716  12.335 -0.0633 -0.2816 -0.4584
 1972DECAN   C519705   6.852   4.682  12.482  0.2056  0.9557 -0.1088
 1972DECAN   C619706   6.976   4.691  12.572  0.1428  0.1272  0.0666
 1972DECAN   C719707   6.945   4.648  12.717  0.3080 -0.5384 -0.0881
 1972DECAN   C819708   7.076   4.649  12.797  0.2087 -0.1099  0.0729
 1972DECAN   C919709   7.071   4.659  12.950 -0.3542 -0.0662  0.0520
 1972DECAN  C1019710   6.931   4.707  12.994 -0.4099  0.3767 -0.5980
 1973DECAN   C119711   4.254   9.088  15.124 -0.1667 -0.0121  0.2328
 1973DECAN   C219712   4.406   9.067  15.128 -0.1361 -0.0368 -0.8792
 1973DECAN   C319713   4.464   9.186  15.050 -0.0591  0.1915 -0.4772
 1973DECAN   C419714   4.615   9.180  15.017 -0.0125  0.1099 -0.2476
 1973DECAN   C519715   4.705   9.138  15.135 -0.4884 -0.5160 -0.0991
 1973DECAN   C619716   4.843   9.091  15.085  0.0058  0.0737  0.6904
 1973DECAN   C719717   4.835   8.946  15.032  0.8073  0.3002 -0.0752
 1973DECAN   C819718   4.964   8.871  14.994  0.5089 -0.2392 -0.0260
 1973DECAN   C919719   4.939   8.723  14.962 -0.4835 -0.1055  0.0851
 1973DECAN  C1019720   5.059   8.651  14.898 -0.2841  0.3662 -0.0747
 1974DECAN   C119721   5.275   6.635  15.163 -0.2830  0.2378 -0.1297
 1974DECAN   C219722   5.272   6.582  15.018  0.3829  0.4076 -0.2069
 1974DECAN   C319723   5.153   6.654  14.951 -0.0209 -0.4559 -0.4287
 1974DECAN   C419724   5.027   6.626  15.034  0.3038 -0.3178  0.1220
 1974DECAN   C519725   4.905   6.711  14.992  0.3997 -0.1809  0.1211
 1974DECAN   C619726   4.777   6.727  15.077  0.2537 -0.0998 -0.1126
 1974DECAN   C719727   4.655   6.750  14.986 -0.0001 -1.1690 -0.0582
 1974DECAN   C819728   4.512   6.746  15.043  0.1396  0.3199  0.4443
 1974DECAN   C919729   4.464   6.624  15.125 -0.0461  0.3168  0.3315
 1974DECAN  C1019730   4.313   6.601  15.106  0.1507 -0.6050 -0.1863
 1975DECAN   C119731   6.475   8.597   5.493  0.1860 -0.6964 -0.1571
 1975DECAN   C219732   6.449   8.740   5.442  0.2859 -0.3866  0.6504
 1975DECAN   C319733   6.472   8.759   5.291 -0.7450 -0.1902  0.5070
 1975DECAN   C419734   6.454   8.905   5.245 -0.4680 -0.4064 -0.3136
 1975DECAN   C519735   6.531   8.931   5.115  0.4597 -0.3875  0.2319
 1975DECAN   C619736   6.518   9.079   5.076 -0.0546 -0.5267 -0.1404
 1975DECAN   C719737   6.570   9.111   4.934  0.3255  0.3710  0.1892
 1975DECAN   C819738   6.573   9.262   4.909  0.2548  0.4181  0.4552
 1975DECAN   C919739   6.440   9.337   4.890  0.3028  0.3827 -0.0550
 1975DECAN  C1019740   6.333   9.327   5.000  0.9688 -0.1561  0.5566
 1976DECAN   C119741   1.307  10.757   9.250 -0.3690  0.2873 -0.0633
 1976DECAN   C219742   1.318  10.609   9.212 -0.1834  0.3937 -0.4275
 1976DECAN   C319743   1.414  10.560   9.102  0.0665 -0.4136  0.1391
 1976DECAN   C419744   1.375  10.594   8.957  0.3790 -0.0746  0.1357
 1976DECAN   C519745   1.491  10.556   8.863  0.1679 -0.8192  0.1720
 1976DECAN   C619746   1.553  10.418   8.892  0.1279 -0.7299  0.7009
 1976DECAN   C719747   1.700  10.413   8.845 -0.0927  0.1909 -0.1324
 1976DECAN   C819748   1.807  10.470   8.940 -0.1133 -0.1056  0.0731
 1976DECAN   C919749   1.950  10.481   8.884 -0.2595 -0.3563 -0.3509
 1976DECAN  C1019750   2.065  10.514   8.981 -0.3495  0.5987 -0.5591
 1977DECAN   C119751   4.941   7.010  12.519  0.0205  0.0077 -0.6600
 1977DECAN   C219752   4.898   7.156  12.542 -0.0280 -0.0098 -0.6405
 1977DECAN   C319753   4.937   7.256  12.431 -0.2964 -0.2886 -0.9849
 1977DECAN   C419754   4.873   7.395  12.442  0.0964 -0.1806 -0.0489
 1977DECAN   C519755   4.958   7.486  12.352  0.0550 -0.0765  0.0162
 1977DECAN   C619756   4.907   7.631  12.344 -0.2379 -0.1900 -0.1673
 1977DECAN   C719757   4.989   7.712  12.241 -0.0673  0.0378  0.1481
 1977DECAN   C819758   4.943   7.857  12.220  0.2604  0.1487  0.1852
 1977DECAN   C919759   5.034   7.912  12.108  0.2358  0.1820  0.1806
 1977DECAN  C1019760   5.185   7.910  12.141  0.2483  0.5273  0.1431
 1978DECAN   C119761   8.584   0.620  12.028 -0.3819 -0.1808  0.2328
 1978DECAN   C219762   8.601   0.516  11.916 -0.3205  0.0296  0.0467
 1978DECAN   C319763   8.709   0.411  11.949 -0.1521  0.1471 -0.1232
 1978DECAN   C419764   8.654   0.336  12.073  0.1895 -0.1716 -0.1607
 1978DECAN   C519765   8.502   0.316  12.079  0.2199 -0.5153 -0.4977
 1978DECAN   C619766   8.455   0.233  12.200 -0.3985  0.2166 -0.2292
 1978DECAN   C719767   8.333   0.302  12.264  0.0942  0.5305  0.3886
 1978DECAN   C819768   8.301   0.251  12.406 -0.2662  0.3104  0.2296
 1978DECAN   C919769   8.184   0.321  12.477 -0.5351 -0.4239  0.5203
 1978DECAN  C1019770   8.209   0.469  12.512  0.4337 -0.5028  0.1935
 1979DECAN   C119771   9.773  11.002   6.541 -0.7572 -0.1607 -0.1527
 1979DECAN   C219772   9.744  10.850   6.536 -0.3203 -0.2573  0.1879
 1979DECAN   C319773   9.646  10.803   6.645 -0.4174  0.2727  0.3349
 1979DECAN   C419774   9.535  10.710   6.593  0.0361 -0.2099  0.2108
 1979DECAN   C519775   9.446  10.647   6.701  0.0588 -0.6319 -0.0168
 1979DECAN   C619776   9.524  10.540   6.780  0.6719  0.1299  0.4161
 1979DECAN   C719777   9.461  10.493   6.912  0.6237  0.2127  0.4225
 1979DECAN   C819778   9.439  10.608   7.012 -0.3284  1.0077 -0.6782
 1979DECAN   C919779   9.569  10.690   7.028  0.2030  0.0130  0.2190
 1979DECAN  C1019780   9.595  10.725   7.176  0.9405 -0.2439  0.1538
 1980DECAN   C119781   9.731   3.506   8.350  0.3592  0.4576  0.4294
 1980DECAN   C219782   9.852   3.447   8.275  0.1036 -0.3509  0.6340
 1980DECAN   C319783   9.823   3.427   8.125  0.5288  0.3088  0.4587
 1980DECAN   C419784   9.938   3.358   8.049  0.4521  0.2616  0.3860
 1980DECAN   C519785   9.904   3.261   7.935 -0.5043  0.3871  0.5535
 1980DECAN   C619786   9.807   3.147   7.971 -0.6307  0.3612  0.1384
 1980DECAN   C719787   9.851   3.056   8.086  0.2366  0.0953 -0.3978
 1980DECAN   C819788   9.753   2.950   8.139  0.3975  0.2422  0.2030
 1980DECAN   C919789   9.617   3.010   8.179  0.1996 -0.1537  0.1337
 1980DECAN  C1019790   9.500   2.911   8.161  0.4529 -0.3952 -0.1934
 1981DECAN   C119791   2.615   2.572   5.065 -0.3923 -0.1911  0.0386
 1981DECAN   C219792   2.719   2.580   4.952 -0.4293  0.2655  0.0362
 1981DECAN   C319793   2.654   2.561   4.814 -0.1761 -0.0582 -0.0398
 1981DECAN   C419794   2.738   2.589   4.688  0.1717 -0.0804  0.1842
 1981DECAN   C519795   2.663   2.562   4.556  0.0542  0.0646  0.2209
 1981DECAN   C619796   2.755   2.572   4.433  0.1096  0.7640  0.3170
 1981DECAN   C719797   2.848   2.451   4.412  0.2229  0.8092  0.5589
 1981DECAN   C819798   2.906   2.447   4.270 -0.1332 -0.0860  0.4290
 1981DECAN   C919799   2.977   2.578   4.231  0.1353 -0.3970 -0.1379
 1981DECAN  C1019800   3.057   2.571   4.099 -0.2537  0.1683 -0.4102
 1982DECAN   C119801   8.934   5.654  11.790  0.2822  0.0922  0.2393
 1982DECAN   C219802   8.872   5.695  11.924 -0.0694 -0.1369  0.1468
 1982DECAN   C319803   8.814   5.837  11.933 -0.0544 -0.1364  0.2388
 1982DECAN   C419804   8.724   5.861  12.056 -0.0517 -0.0493  0.2235
 1982DECAN   C519805   8.665   6.003  12.063 -0.2387 -0.1438  0.5471
 1982DECAN   C619806   8.545   6.037  11.972  0.2872  0.0762 -0.0730
 1982DECAN   C719807   8.482   6.176  11.995 -0.1607 -0.1279 -0.0574
 1982DECAN   C819808   8.560   6.284  11.919  0.0728 -0.5002 -0.3547
 1982DECAN   C919809   8.709   6.284  11.958 -0.1268  0.0844  0.4461
 1982DECAN  C1019810   8.767   6.393  11.866  0.0095 -0.3677 -0.0106
 1983DECAN   C119811  10.909  10.853  10.783  0.2451  0.1042 -0.0665
 1983DECAN   C219812  10.820  10.731  10.816  0.0491  0.3683  0.3944
 1983DECAN   C319813  10.899  10.619  10.885  0.1110  0.3203  0.2456
 1983DECAN   C419814  10.946  10.661  11.025 -0.1883  0.6969  0.2326
 1983DECAN   C519815  11.054  10.771  11.017  0.1777  0.3109 -0.1769
 1983DECAN   C619816  11.109  10.814  11.154 -0.1034 -0.3336  0.1415
 1983DECAN   C719817  11.005  10.877  11.249 -0.3180 -0.9567  0.3267
 1983DECAN   C819818  11.070  10.916  11.383 -0.3434 -0.1446  0.1072
 1983DECAN   C919819  11.112  10.786  11.454 -0.6047 -0.0767  0.3852
 1983DECAN  C1019820  11.164  10.823  11.595  0.4653  0.1928 -0.0714
 1984DECAN   C119821   8.066   8.522  11.587  0.3879  0.5585 -0.3485
 1984DECAN   C219822   7.960   8.634  11.572 -0.1348  0.0770 -0.2991
 1984DECAN   C319823   7.914   8.670  11.430  0.2002  0.4156 -0.3252
 1984DECAN   C419824   7.906   8.545  11.340  0.5095  0.0425  0.1623
 1984DECAN   C519825   7.882   8.412  11.414 -0.1080  0.2887  0.4121
 1984DECAN   C619826   7.879   8.281  11.333  0.3643  0.0368  0.7945
 1984DECAN   C719827   8.014   8.257  11.263  0.1644 -0.4045  0.5549
 1984DECAN   C819828   8.019   8.151  11.152  0.6775  0.5577 -0.3550
 1984DECAN   C919829   7.923   8.178  11.035 -0.2671 -0.2358  0.2251
 1984DECAN  C1019830   7.917   8.328  11.002 -0.1468 -0.1537  0.5759
 1985DECAN   C119831   6.711  10.083  12.018 -0.0230  0.1140  0.0289
 1985DECAN   C219832   6.560  10.075  11.990 -0.1153  0.6205  0.3676
 1985DECAN   C319833   6.469  10.140  12.096 -0.5047  0.5449  0.0839
 1985DECAN   C419834   6.320  10.149  12.060 -0.5557 -0.6535 -0.0223
 1985DECAN   C519835   6.221  10.171  12.176 -0.6505  0.1568 -0.2523
 1985DECAN   C619836   6.226  10.314  12.233  0.2145  0.0063  0.0624
 1985DECAN   C719837   6.354  10.346  12.314  0.3220 -0.4435  0.0728
 1985DECAN   C819838   6.379  10.252  12.433 -0.0038 -0.3476  0.2194
 1985DECAN   C919839   6.496  10.299  12.522  0.3047 -0.4384 -0.1338
 1985DECAN  C1019840   6.628  10.250  12.460  0.4993  0.3910 -0.3894
 1986DECAN   C119841   2.707   8.627   4.353 -0.0750 -0.1766  0.2256
 1986DECAN   C219842   2.623   8.754   4.333 -0.2698 -0.3601 -0.1434
 1986DECAN   C319843   2.649   8.844   4.456  0.0856 -0.7318  0.0558
 1986DECAN   C419844   2.511   8.902   4.492  0.4325  0.0885  0.0666
 1986DECAN   C519845   2.515   9.001   4.610 -0.3079  0.0936  0.0925
 1986DECAN   C619846   2.369   9.034   4.647 -0.2250  0.4739  0.0796
 1986DECAN   C719847   2.340   9.146   4.749  0.3901  0.6152  0.1072
 1986DECAN   C819848   2.191   9.178   4.775  0.4417  0.3505  0.7427
 1986DECAN   C919849   2.129   9.062   4.855  0.3100 -0.1440 -0.0651
 1986DECAN  C1019850   2.040   9.101   4.975 -0.0946  0.0250 -0.4174
 1987DECAN   C119851   5.693   1.771  10.822  0.3513  0.1337 -0.3526
 1987DECAN   C219852   5.788   1.808  10.938 -0.1786  0.4183 -0.0043
 1987DECAN   C319853   5.727   1.807  11.079 -0.4898  0.6037 -0.1348
 1987DECAN   C419854   5.668   1.669  11.114 -0.3311  0.5772  0.0295
 1987DECAN   C519855   5.529   1.640  11.054 -0.0798 -0.2965 -0.1483
 1987DECAN   C619856   5.480   1.497  11.083 -0.6567  0.0886  0.8199
 1987DECAN   C719857   5.346   1.459  11.017 -0.4081  0.4420  0.1008
 1987DECAN   C819858   5.332   1.306  11.011 -0.1197  0.4310 -0.4450
 1987DECAN   C919859   5.188   1.261  10.980 -0.2087  0.0381  0.4896
 1987DECAN  C1019860   5.163   1.113  11.015  0.1028 -0.0521  0.3301
 1988DECAN   C119861   3.797   9.981   7.591  0.0877  0.5319 -0.5346
 1988DECAN   C219862   3.942   9.933   7.575 -0.1989 -0.4982 -0.1441
 1988DECAN   C319863   4.049  10.016   7.649 -0.2312 -0.0403 -0.6014
 1988DECAN   C419864   4.192   9.964   7.625 -0.0625  0.0428  0.2108
 1988DECAN   C519865   4.299  10.039   7.707  0.1332  0.5804 -0.5243
 1988DECAN   C619866   4.317  10.191   7.691  0.1579  0.5392 -0.8897
 1988DECAN   C719867   4.215  10.292   7.746 -0.3670 -0.5277  0.1342
 1988DECAN   C819868   4.246  10.431   7.687  0.0473 -0.0879  1.3429
 1988DECAN   C919869   4.144  10.540   7.727 -0.2124  0.0379  0.3779
 1988DECAN  C1019870   4.180  10.674   7.661 -0.5642 -0.0946 -0.0805
 1989DECAN   C119871   6.180   8.648  11.962  0.3558 -0.2050  0.3474
 1989DECAN   C219872   6.105   8.777  11.921 -0.0177 -0.5359 -0.0332
 1989DECAN   C319873   6.198   8.895  11.958 -0.3186 -0.2619 -0.1444
 1989DECAN   C419874   6.116   9.024  11.944  0.3371  0.1345 -0.3655
 1989DECAN   C519875   5.981   9.028  12.019  0.6264 -0.3183  0.1867
 1989DECAN   C619876   5.926   9.171  12.027 -0.1998 -0.5996 -0.3714
 1989DECAN   C719877   5.811   9.182  12.129 -0.1120 -0.0875 -0.3243
 1989DECAN   C819878   5.749   9.320  12.155 -0.2270 -0.2360  0.2053
 1989DECAN   C919879   5.624   9.309  12.243 -0.4773  0.4159 -0.0602
 1989DECAN  C1019880   5.516   9.220  12.178 -0.1107 -0.1878  0.1521
 1990DECAN   C119881   8.324   3.382  10.160 -0.4950 -0.4910  0.5000
 1990DECAN   C219882   8.344   3.288  10.040 -0.1623  0.6368 -0.3513
 1990DECAN   C319883   8.297   3.142  10.055 -0.2655  0.6752 -0.2949
 1990DECAN   C419884   8.287   3.058   9.926 -0.5795  0.0432  0.1380
 1990DECAN   C519885   8.228   2.919   9.959 -0.2471 -0.2527 -0.4927
 1990DECAN   C619886   8.173   2.837   9.841 -0.0373 -0.1751 -0.6438
 1990DECAN   C719887   8.287   2.766   9.765  0.5703  0.3879 -0.2699
 1990DECAN   C819888   8.235   2.653   9.674  0.1759  0.3615 -0.0148
 1990DECAN   C919889   8.337   2.602   9.570  0.2289 -0.0385  0.2315
 1990DECAN  C1019890   8.281   2.488   9.483 -0.4561  0.3981  0.0900
 1991DECAN   C119891   7.697   1.464   8.283  0.3042  0.1935  0.1879
 1991DECAN   C219892   7.658   1.552   8.162 -0.2552 -0.0287  0.2039
 1991DECAN   C319893   7.771   1.575   8.059 -0.4510 -0.6042 -0.1449
 1991DECAN   C419894   7.721   1.631   7.925 -0.2021 -0.1789 -0.0626
 1991DECAN   C519895   7.820   1.729   7.858 -0.4603  0.1681  0.0649
 1991DECAN   C619896   7.752   1.787   7.732  0.0620  0.2107 -0.1968
 1991DECAN   C719897   7.833   1.900   7.665 -0.0358  0.3031 -0.1595
 1991DECAN   C819898   7.766   1.967   7.543 -0.4560  0.2672  0.0485
 1991DECAN   C919899   7.865   2.049   7.459 -0.3348 -0.2820 -0.3493
 1991DECAN  C1019900   7.795   2.140   7.356 -0.0393  0.0264 -0.2793
 1992DECAN   C119901   4.191   6.611   3.963 -0.1380 -0.3458  0.3706
 1992DECAN   C219902   4.303   6.529   3.896 -0.0088 -0.2017  0.4080
 1992DECAN   C319903   4.284   6.380   3.933  0.0472 -0.1810  0.5172
 1992DECAN   C419904   4.373   6.286   3.850  0.2290  0.3255  0.1303
 1992DECAN   C519905   4.373   6.144   3.910 -0.6482  0.5467  0.6657
 1992DECAN   C619906   4.239   6.070   3.896 -0.3450  0.0870  0.1668
 1992DECAN   C719907   4.237   5.925   3.949  0.2400  0.1520  0.3631
 1992DECAN   C819908   4.307   5.827   3.853  0.0085  0.3683 -0.0306
 1992DECAN   C919909   4.318   5.701   3.942  0.1660 -0.1300 -0.7507
 1992DECAN  C1019910   4.346   5.571   3.864 -0.3186 -0.3936 -0.4885
 1993DECAN   C119911   4.985   7.159  12.894 -0.4438  0.2942  0.4799
 1993DECAN   C219912   4.878   7.058  12.939  0.1593 -0.3155  0.5616
 1993DECAN   C319913   4.883   7.010  13.085  0.0691 -0.5636  0.4838
 1993DECAN   C419914   4.768   6.918  13.129 -0.7886  0.1381 -0.2594
 1993DECAN   C519915   4.771   6.883  13.279 -0.4105  0.1177 -0.2717
 1993DECAN   C619916   4.725   6.997  13.371 -0.7331 -0.1514 -0.0988
 1993DECAN   C719917   4.760   6.980  13.520  0.0881 -0.4771 -0.3249
 1993DECAN   C819918   4.912   6.972  13.538  0.0935  0.0362 -0.1525
 1993DECAN   C919919   4.979   7.111  13.541  0.0821  0.0388  0.0389
 1993DECAN  C1019920   4.909   7.206  13.640  0.1433 -0.1683  0.2800
 1994DECAN   C119921   6.728   1.936   7.686 -0.1903 -0.1175  0.2464
 1994DECAN   C219922   6.828   1.905   7.573 -0.2850  0.9376 -0.1351
 1994DECAN   C319923   6.963   1.855   7.626 -0.4302 -0.4343 -0.9904
 1994DECAN   C419924   7.057   1.791   7.521  0.2632 -0.4218 -0.3891
 1994DECAN   C519925   7.200   1.757   7.565  0.1531  0.4523  0.6922
 1994DECAN   C619926   7.280   1.714   7.441 -0.1550  0.4307  0.5010
 1994DECAN   C719927   7.416   1.650   7.473 -0.0249  0.2079 -0.4740
 1994DECAN   C819928   7.482   1.605   7.341  0.2739  0.5270 -0.4356
 1994DECAN   C919929   7.633   1.582   7.359  0.1380 -0.0650 -0.0237
 1994DECAN  C1019930   7.699   1.523   7.233  0.4278  0.3020 -0.0444
 1995DECAN   C119931   0.797   6.800  11.051 -0.4832 -0.0290 -0.1724
 1995DECAN   C219932   0.828   6.725  10.921  0.4307  0.6531 -0.3560
 1995DECAN   C319933   0.746   6.766  10.797 -0.2848  0.1681 -0.0471
 1995DECAN   C419934   0.781   6.691  10.667  0.2793  0.1540  0.1079
 1995DECAN   C519935   0.927   6.710  10.623  0.2757 -0.1190 -0.0212
 1995DECAN   C619936   0.963   6.632  10.494 -0.5806 -0.2167 -0.2068
 1995DECAN   C719937   0.882   6.668  10.368 -0.4662 -0.3235 -0.3106
 1995DECAN   C819938   0.851   6.819  10.359 -0.3207 -0.2945 -0.3233
 1995DECAN   C919939   0.791   6.875  10.229  0.3652  0.2889 -0.3930
 1995DECAN  C1019940   0.775   7.028  10.230  0.0940  0.2619 -0.4136
 1996DECAN   C119941   5.419   6.751  12.671  0.3329  0.3917  0.0327
 1996DECAN   C219942   5.282   6.818  12.692  0.1316 -0.0169  0.0326
 1996DECAN   C319943   5.219   6.783  12.828 -0.3835 -0.3343 -0.2838
 1996DECAN   C419944   5.184   6.634  12.842  0.0271 -0.4253 -0.1933
 1996DECAN   C519945   5.097   6.610  12.966 -0.0762 -0.2750 -0.2360
 1996DECAN   C619946   5.178   6.610  13.097 -0.2804 -0.1892 -0.1099
 1996DECAN   C719947   5.261   6.738  13.118  0.0968 -0.5084  0.3934
 1996DECAN   C819948   5.327   6.738  13.257  0.1760 -0.6390  0.3555
 1996DECAN   C919949   5.395   6.867  13.305 -0.2738 -0.1976 -0.1742
 1996DECAN  C1019950   5.308   6.994  13.304  0.1952  0.1257 -0.4085
 1997DECAN   C119951   9.735   6.011   8.336 -0.5729  0.9358  0.3207
 1997DECAN   C219952   9.585   6.014   8.300 -0.5941  0.1237  0.3212
 1997DECAN   C319953   9.529   6.154   8.267 -0.1044  0.3255  0.3308
 1997DECAN   C419954   9.376   6.142   8.253 -0.1059  0.8104 -0.0822
 1997DECAN   C519955   9.328   6.059   8.133  0.1727  0.1702  0.2453
 1997DECAN   C619956   9.177   6.027   8.128  0.0987  0.5574 -0.0786
 1997DECAN   C719957   9.097   6.159   8.122 -0.0481  0.4649 -0.1501
 1997DECAN   C819958   8.961   6.147   8.052 -0.1588 -0.3142  0.1879
 1997DECAN   C919959   8.874   6.272   8.072  0.2921  0.0015  0.1817
 1997DECAN  C1019960   8.950   6.395   8.019 -0.2264  0.4619  0.4948
 1998DECAN   C119961  10.029  10.760   7.133 -0.2539  0.5624 -0.6992
 1998DECAN   C219962   9.996  10.908   7.162  0.2649  0.3971  0.8279
 1998DECAN   C319963  10.012  10.985   7.030  0.2534  0.1343  0.6725
 1998DECAN   C419964   9.972  11.133   7.026 -0.0408  0.0419 -0.0369
 1998DECAN   C519965  10.003  11.220   6.903 -0.0405  0.1010  0.0050
 1998DECAN   C619966   9.908   0.096   6.891  0.0793  0.1827 -0.1390
 1998DECAN   C719967   9.952   0.188   6.775  0.2446 -0.1308 -0.3267
 1998DECAN   C819968  10.085   0.263   6.792  0.4949 -0.6325 -0.0484
 1998DECAN   C919969  10.128   0.334   6.662 -0.8302 -0.8527 -0.6227
 1998DECAN  C1019970  10.038   0.455   6.630  0.3080  0.0350 -0.5258
 1999DECAN   C119971   7.560   9.271  10.435  0.1411  0.2441  0.1668
 1999DECAN   C219972   7.460   9.159  10.472  0.5518 -0.1742  0.0177
 1999DECAN   C319973   7.536   9.028  10.499  0.3556 -0.2693  0.1083
 1999DECAN   C419974   7.453   8.899  10.484  0.0729 -0.1072  0.2718
 1999DECAN   C519975   7.537   8.770  10.478 -0.0611 -0.1475 -1.0454
 1999DECAN   C619976   7.446   8.649  10.503 -0.0209  0.0998  0.3629
 1999DECAN   C719977   7.516   8.514  10.527 -0.4435 -0.1433  0.2558
 1999DECAN   C819978   7.420   8.397  10.550 -0.4022 -0.2478 -0.0946
 1999DECAN   C919979   7.494   8.262  10.551  0.0783  0.0101 -0.4856
 1999DECAN  C1019980   7.503   8.184  10.684  0.5628  0.0599 -0.4865
 2000DECAN   C119981   4.689   2.399  14.916 -0.1775 -0.1579  0.2872
 2000DECAN   C219982   4.841   2.399  14.940  0.0219 -0.3002 -0.9484
 2000DECAN   C319983   4.922   2.527  14.912  0.0343 -0.2412 -0.6465
 2000DECAN   C419984   5.073   2.512  14.941  0.0315 -0.0738 -0.5492
 2000DECAN   C519985   5.141   2.398  14.863  0.2522 -0.0499 -0.3905
 2000DECAN   C619986   5.289   2.367  14.893  0.2414  0.0526 -0.2323
 2000DECAN   C719987   5.383   2.474  14.834  0.3492  0.4431  0.6196
 2000DECAN   C819988   5.534   2.456  14.853  0.3332 -0.2487  0.1279
 2000DECAN   C919989   5.620   2.556  14.775  0.5176 -0.4899  0.0176
 2000DECAN  C1019990   5.771   2.553  14.807  0.7246 -0.3125 -0.9138
 2001DECAN   C119991   3.288   7.196  10.351 -0.0168 -0.3390 -0.6343
 2001DECAN   C219992   3.401   7.184  10.247  0.3419 -0.6251 -0.2194
 2001DECAN   C319993   3.349   7.255  10.121  0.4646  0.4393  0.3216
 2001DECAN   C419994   3.429   7.212   9.997 -0.2963 -0.2390  0.0610
 2001DECAN   C519995   3.359   7.269   9.872 -0.1159  0.3062  0.2101
 2001DECAN   C619996   3.421   7.225   9.738 -0.2134 -0.3977  0.3952
 2001DECAN   C719997   3.414   7.331   9.627  0.3756 -0.1188  0.6180
 2001DECAN   C819998   3.507   7.279   9.515  0.2653 -0.2454  0.5843
 2001DECAN   C919999   3.518   7.373   9.394  0.1723 -0.1030  0.6855
 2001DECAN  C1020000   3.521   7.517   9.449 -0.8259  0.1193  0.1837
 2002DECAN   C120001   2.004   4.579   5.745  0.3553  0.2571 -0.3802
 2002DECAN   C220002   2.076   4.638   5.867  0.0456 -0.0168 -0.0630
 2002DECAN   C320003   2.213   4.707   5.854  0.0089  0.0843  0.0724
 2002DECAN   C420004   2.248   4.792   5.977  0.3909 -0.4975  0.3719
 2002DECAN   C520005   2.360   4.893   5.946  0.7036 -0.8945  0.1984
 2002DECAN   C620006   2.385   4.981   6.070  0.3942  0.1195 -0.4448
 2002DECAN   C720007   2.481   4.912   6.168 -0.6154 -0.2914  0.2719
 2002DECAN   C820008   2.620   4.876   6.111 -0.3857  0.1781  0.5203
 2002DECAN   C920009   2.710   4.793   6.204  0.7694  0.0766 -0.6579
 2002DECAN  C1020010   2.751   4.855   6.339 -0.1113  0.0568 -0.3726
 2003DECAN   C120011  10.047  11.230  13.963  0.2979 -0.8053  0.4159
 2003DECAN   C220012  10.161   0.029  13.868 -0.1860 -0.4394 -0.0079
 2003DECAN   C320013  10.238   0.154  13.916 -0.1804 -0.5922  0.3892
 2003DECAN   C420014  10.160   0.283  13.947  0.4648 -0.0842 -0.0586
 2003DECAN   C520015  10.247   0.390  14.015 -0.2059  0.0423  0.6054
 2003DECAN   C620016  10.164   0.511  14.062  0.1696  0.5357  0.0116
 2003DECAN   C720017  10.256   0.602  14.146  0.2083 -0.1489  0.7193
 2003DECAN   C820018  10.173   0.721  14.198 -0.0746 -0.1937  0.3735
 2003DECAN   C920019  10.258   0.838  14.251  0.1908 -0.1222 -0.2052
 2003DECAN  C1020020  10.184   0.973  14.262  0.0270 -0.2904  0.8324
 2004DECAN   C120021   2.647   3.370  14.610  0.4534  0.8041  0.3047
 2004DECAN   C220022   2.562   3.428  14.495  0.3217 -0.1183 -0.0674
 2004DECAN   C320023   2.629   3.528  14.400 -0.0348  0.2824  0.0993
 2004DECAN   C420024   2.736   3.466  14.307  0.1401  0.5829  0.0995
 2004DECAN   C520025   2.787   3.570  14.206  0.5549  0.3975  0.1178
 2004DECAN   C620026   2.900   3.522  14.113  0.7909 -0.2775  0.7469
 2004DECAN   C720027   2.877   3.396  14.027 -0.2812  0.3300  0.1199
 2004DECAN   C820028   3.002   3.357  13.946 -0.9199  0.0558 -0.7395
 2004DECAN   C920029   2.978   3.240  13.848 -0.8224 -0.7086  0.1290
 2004DECAN  C1020030   2.890   3.287  13.731  0.3886  0.0900 -0.4916
 2005DECAN   C120031   9.029   4.602   4.769  0.1931  0.0607  0.5478
 2005DECAN   C220032   8.973   4.459   4.776 -0.4138  0.2616 -0.0751
 2005DECAN   C320033   8.826   4.440   4.821 -0.3840  0.1110 -0.0411
 2005DECAN   C420034   8.794   4.292   4.848 -0.2229  0.1319  0.2660
 2005DECAN   C520035   8.655   4.267   4.907 -0.4100 -0.4988 -0.4187
 2005DECAN   C620036   8.622   4.131   4.971  0.1417 -0.4506 -0.0260
 2005DECAN   C720037   8.483   4.133   5.037 -0.1520 -0.2933 -0.6375
 2005DECAN   C820038   8.379   4.174   4.931 -0.2864  0.7079 -0.1326
 2005DECAN   C920039   8.242   4.115   4.967 -0.1545  0.4224 -0.0930
 2005DECAN  C1020040   8.197   4.177   5.100 -0.5346  0.6118 -0.3076
 2006DECAN   C120041   3.209   5.674   6.736  0.4953  0.0732  0.3349
 2006DECAN   C220042   3.084   5.760   6.763  0.2430 -0.1857  0.0014
 2006DECAN   C320043   3.043   5.748   6.911  0.6567 -0.6541  0.0828
 2006DECAN   C420044   2.975   5.616   6.952  0.1545 -0.2621  0.5294
 2006DECAN   C520045   2.881   5.580   6.835  0.3348 -0.2552  0.3810
 2006DECAN   C620046   2.820   5.439   6.851 -0.2230 -0.0821 -0.1916
 2006DECAN   C720047   2.715   5.403   6.745  0.1360 -0.0903 -0.5498
 2006DECAN   C820048   2.644   5.271   6.782  0.1242 -0.0299 -0.3533
 2006DECAN   C920049   2.532   5.236   6.683 -0.3097  0.1390  0.0782
 2006DECAN  C1020050   2.506   5.089   6.644  0.3676  0.0497 -0.0351
 2007DECAN   C120051   8.304   9.285  11.821  0.1250 -0.4550 -0.6875
 2007DECAN   C220052   8.338   9.425  11.767 -0.0634 -0.0626  0.1908
 2007DECAN   C320053   8.480   9.474  11.803 -0.1432  0.3811 -0.0914
 2007DECAN   C420054   8.520   9.605  11.733  0.0908  0.3618  0.0066
 2007DECAN   C520055   8.620   9.692  11.813 -0.2785  0.3357  0.5039
 2007DECAN   C620056   8.593   9.698  11.964 -0.0630 -0.1970  0.5637
 2007DECAN   C720057   8.717   9.715  12.054  0.1408 -1.1978  0.4936
 2007DECAN   C820058   8.696   9.762  12.199  0.1142 -0.2362  0.1875
 2007DECAN   C920059   8.606   9.887  12.209  0.5714  0.1400 -0.3165
 2007DECAN  C1020060   8.637   9.961  12.340  0.0304  0.0393 -0.1259
 2008DECAN   C120061   7.782   9.239  13.147 -0.4499 -0.0571 -0.3029
 2008DECAN   C220062   7.759   9.391  13.155 -0.3130 -0.0548  0.0731
 2008DECAN   C320063   7.876   9.478  13.106 -0.1879 -0.1541  0.1963
 2008DECAN   C420064   7.982   9.486  13.218 -0.0640 -0.0854  0.0739
 2008DECAN   C520065   8.124   9.501  13.160 -0.0897  0.2535  0.0974
 2008DECAN   C620066   8.175   9.385  13.072 -0.3799  0.3006 -0.1354
 2008DECAN   C720067   8.326   9.397  13.042 -0.3020 -0.3355 -0.0057
 2008DECAN   C820068   8.359   9.502  12.935  0.4994  0.0017  0.5678
 2008DECAN   C920069   8.304   9.640  12.976 -0.3440  0.0465 -0.6688
 2008DECAN  C1020070   8.284   9.740  12.861  0.4277  0.3956 -0.5027
 2009DECAN   C120071   1.561  11.185   5.523  0.1964 -0.0840 -0.3747
 2009DECAN   C220072   1.702  11.125   5.518  0.1872 -0.1033 -0.3918
 2009DECAN   C320073   1.751  11.132   5.372  0.2235  0.8631 -0.3430
 2009DECAN   C420074   1.892  11.072   5.353 -0.0110  0.4593 -0.8368
 2009DECAN   C520075   1.993  11.115   5.460 -0.1812 -0.5145 -0.2766
 2009DECAN   C620076   1.963  11.054   5.598  0.6370 -0.4257 -0.0515
 2009DECAN   C720077   2.040  11.116   5.716  0.4169 -0.2334 -0.0073
 2009DECAN   C820078   1.967  11.091   5.849 -0.3761  0.1268 -0.3729
 2009DECAN   C920079   1.949  10.943   5.887 -0.2038 -0.0392 -0.9386
 2009DECAN  C1020080   1.876  10.927   6.021  0.5623 -0.6292 -0.5835
 2010DECAN   C120081   2.875   5.427  14.084 -0.4000  0.0895 -0.2404
 2010DECAN   C220082   2.780   5.484  14.192  0.2000  0.4143  0.1233
 2010DECAN   C320083   2.636   5.502  14.142  0.0539  0.2323  0.4758
 2010DECAN   C420084   2.635   5.572  14.005  0.1684 -0.2142  0.2447
 2010DECAN   C520085   2.725   5.497  13.905  0.4447  0.3077  0.0964
 2010DECAN   C620086   2.743   5.561  13.766  0.1009 -0.2455 -0.2099
 2010DECAN   C720087   2.848   5.484  13.684 -0.1519 -0.4906 -0.3026
 2010DECAN   C820088   2.853   5.527  13.537  0.2907  0.3474 -0.0488
 2010DECAN   C920089   2.852   5.678  13.509 -0.1052  0.3201 -0.1849
 2010DECAN  C1020090   2.780   5.707  13.376 -0.4441  0.3311  0.0011
 2011DECAN   C120091   7.859  10.340  11.755  0.4997 -0.3821  0.0096
 2011DECAN   C220092   7.975  10.398  11.839  0.2600 -0.8568  0.6797
 2011DECAN   C320093   8.108  10.416  11.763 -0.2459 -0.0041 -0.0158
 2011DECAN   C420094   8.222  10.487  11.838  0.0677  0.1849 -0.6647
 2011DECAN   C520095   8.353  10.493  11.758  0.1986  0.3548 -0.4367
 2011DECAN   C620096   8.465  10.565  11.836  0.2260 -0.3641  0.2074
 2011DECAN   C720097   8.603  10.570  11.766  0.0626  0.9234 -0.0542
 2011DECAN   C820098   8.716  10.648  11.835  0.6789  0.2080 -0.2437
 2011DECAN   C920099   8.745  10.607  11.981 -0.3503 -0.3214 -0.1762
 2011DECAN  C1020100   8.737  10.458  12.020 -1.0887 -0.2178  0.0696
 2012DECAN   C120101   6.918   5.019   5.106  0.1209  0.0081 -0.3761
 2012DECAN   C220102   6.775   5.065   5.071  0.1701  0.3861 -0.0882
 2012DECAN   C320103   6.672   4.951   5.078  0.3399  0.2322 -0.1041
 2012DECAN   C420104   6.631   4.923   5.224 -0.0218 -0.6618 -0.3712
 2012DECAN   C520105   6.537   4.806   5.262 -0.2055 -0.3961 -0.0060
 2012DECAN   C620106   6.592   4.676   5.200  0.5214 -0.3015  0.4199
 2012DECAN   C720107   6.480   4.571   5.214 -0.0155  0.2701  0.4989
 2012DECAN   C820108   6.339   4.617   5.173  0.0215 -0.0352  0.0121
 2012DECAN   C920109   6.283   4.735   5.256 -0.1309 -0.0342 -0.0925
 2012DECAN  C1020110   6.151   4.783   5.193 -0.3572 -0.4852  0.0354
 2013DECAN   C120111   9.702   9.518  13.624  0.2779 -0.1953 -0.0045
 2013DECAN   C220112   9.597   9.500  13.735  0.4090  0.4938  0.2397
 2013DECAN   C320113   9.617   9.373  13.820 -0.7157 -0.2026 -0.4987
 2013DECAN   C420114   9.514   9.373  13.934 -0.0518 -0.7997  0.1093
 2013DECAN   C520115   9.372   9.411  13.890  0.4141  0.2099 -0.5678
 2013DECAN   C620116   9.359   9.543  13.812  0.4523  0.8555  0.4962
 2013DECAN   C720117   9.217   9.596  13.784  0.2603 -0.0704 -0.3186
 2013DECAN   C820118   9.236   9.723  13.698  0.0706  0.1986  0.0341
 2013DECAN   C920119   9.295   9.837  13.782 -0.1633  0.0492  0.4038
 2013DECAN  C1020120   9.317   9.978  13.725 -0.3668 -0.2458 -0.4064
 2014DECAN   C120121   7.424   5.646  10.382 -0.0866  0.5690 -0.1747
 2014DECAN   C220122   7.576   5.662  10.396 -0.0032 -0.1930 -0.1840
 2014DECAN   C320123   7.649   5.581  10.287  0.2017 -0.2532 -0.0028
 2014DECAN   C420124   7.797   5.609  10.257  0.2686  0.0277  0.5968
 2014DECAN   C520125   7.863   5.524  10.147 -0.0414  0.4520  0.0813
 2014DECAN   C620126   8.014   5.548  10.128 -0.0309  0.2764 -0.0555
 2014DECAN   C720127   8.070   5.669  10.050 -0.2901  0.3371 -0.1493
 2014DECAN   C820128   7.995   5.801  10.077 -0.4583  0.1473  0.3307
 2014DECAN   C920129   8.046   5.933  10.017  0.1465 -0.1890  0.0974
 2014DECAN  C1020130   7.958   6.057  10.037  0.8315  0.4280 -0.6193
 2015DECAN   C120131   4.311   0.652  10.695 -0.1090 -0.2699 -0.1473
 2015DECAN   C220132   4.242   0.719  10.816 -0.0813  0.3101 -0.4503
 2015DECAN   C320133   4.328   0.710  10.943 -0.3756  0.1163 -0.2627
 2015DECAN   C420134   4.277   0.784  11.067  0.2198 -0.1099  0.1181
 2015DECAN   C520135   4.360   0.757  11.194  0.3420  0.0065  0.0634
 2015DECAN   C620136   4.320   0.629  11.270  0.0181  0.2710  0.3428
 2015DECAN   C720137   4.402   0.614  11.400  0.3716 -0.0837  0.0807
 2015DECAN   C820138   4.366   0.741  11.480 -0.0286 -0.1913  0.0765
 2015DECAN   C920139   4.464   0.778  11.593 -0.0406 -0.1778  0.0818
 2015DECAN  C1020140   4.414   0.917  11.640  0.2764 -0.1100  0.2202
 2016DECAN   C120141   4.256   8.509  12.643 -0.1272 -0.3040 -0.1204
 2016DECAN   C220142   4.286   8.588  12.772 -0.3666 -0.2987 -0.0663
 2016DECAN   C320143   4.421   8.551  12.837  0.0371  1.1787 -0.0396
 2016DECAN   C420144   4.417   8.585  12.987  0.2485  0.1807  0.2009
 2016DECAN   C520145   4.538   8.544  13.072  0.0821  0.3545  0.5227
 2016DECAN   C620146   4.545   8.390  13.069 -0.4156  0.3515 -0.8258
 2016DECAN   C720147   4.669   8.334  13.140 -0.3672  0.5526 -0.7515
 2016DECAN   C820148   4.699   8.189  13.098  0.1989  0.4691 -0.0791
 2016DECAN   C920149   4.813   8.115  13.171 -0.0063  0.5763  0.3515
 2016DECAN  C1020150   4.781   8.078  13.317  1.0138  0.6365  0.6046
 2017DECAN   C120151   1.963  10.373  10.585  0.2301  1.1219 -0.4008
 2017DECAN   C220152   2.029  10.261  10.502  0.2027 -0.1026  1.1856
 2017DECAN   C320153   2.176  10.231  10.536  0.3311 -0.1292  0.6189
 2017DECAN   C420154   2.241  10.113  10.461 -0.0999  0.4076 -0.6163
 2017DECAN   C520155   2.346  10.025  10.531 -0.1365  0.5697 -0.3549
 2017DECAN   C620156   2.466  10.114  10.570  0.1386  0.3383 -0.6631
 2017DECAN   C720157   2.433  10.254  10.626  0.4361 -0.0981  0.6401
 2017DECAN   C820158   2.548  10.356  10.641  0.5302 -0.1285  0.1320
 2017DECAN   C920159   2.655  10.310  10.742  0.5588 -0.6099 -0.1135
 2017DECAN  C1020160   2.607  10.303  10.888  0.1409 -0.3677 -0.2383
 2018DECAN   C120161   6.653   4.013   9.030 -0.2829  0.9469 -0.0544
 2018DECAN   C220162   6.659   4.137   8.938 -0.1891  0.5507 -0.5835
 2018DECAN   C320163   6.749   4.115   8.815  0.1985  0.5220 -0.2977
 2018DECAN   C420164   6.749   4.230   8.711  0.1759  0.2324 -0.6197
 2018DECAN   C520165   6.800   4.361   8.773  0.6260 -0.2313  0.0112
 2018DECAN   C620166   6.796   4.469   8.663 -0.2567  0.0163  0.2757
 2018DECAN   C720167   6.656   4.514   8.618 -0.0877  0.3264  0.0510
 2018DECAN   C820168   6.678   4.553   8.470 -0.3944 -0.0610 -0.0984
 2018DECAN   C920169   6.614   4.688   8.436 -0.6133 -0.1778 -0.1516
 2018DECAN  C1020170   6.613   4.725   8.286  0.3150  0.5159  0.0048
 2019DECAN   C120171   9.784   0.777   7.178 -0.2521  0.1436  0.2526
 2019DECAN   C220172   9.790   0.626   7.208  0.3043  0.0102 -0.4911
 2019DECAN   C320173   9.896   0.548   7.128 -0.2202 -0.6016 -0.6037
 2019DECAN   C420174   9.841   0.510   6.990  0.6637 -0.3029 -1.0437
 2019DECAN   C520175   9.766   0.618   6.909  0.1715 -0.1819 -0.4316
 2019DECAN   C620176   9.663   0.561   6.809 -0.4531 -0.0074  0.1024
 2019DECAN   C720177   9.544   0.500   6.885 -0.1492 -0.2446  0.3946
 2019DECAN   C820178   9.578   0.355   6.926  0.0242 -0.1654  0.5279
 2019DECAN   C920179   9.460   0.274   6.982 -0.0919 -0.4671 -0.1488
 2019DECAN  C1020180   9.396   0.326   7.112 -0.4806  0.0443 -0.5411
 2020DECAN   C120181   5.426   6.852  10.687  0.0164  0.0720 -0.6706
 2020DECAN   C220182   5.431   7.004  10.666 -0.1043  0.2114  0.2485
 2020DECAN   C320183   5.313   7.086  10.723 -0.5618 -0.0398 -0.3296
 2020DECAN   C420184   5.341   7.238  10.723 -0.4602 -0.0580  0.2603
 2020DECAN   C520185   5.241   7.321  10.805 -0.3569  0.1771  0.1509
 2020DECAN   C620186   5.110   7.357  10.732 -0.3997 -0.4007 -0.0652
 2020DECAN   C720187   5.074   7.236  10.644  0.3433 -0.5445 -0.1794
 2020DECAN   C820188   4.939   7.272  10.580  0.2037  0.3069  0.5780
 2020DECAN   C920189   4.914   7.197  10.448  0.2093  0.3961  0.5266
 2020DECAN  C1020190   4.898   7.045  10.468  0.1850  0.3392  0.0847
 2021DECAN   C120191   7.834   8.703   6.198  0.8262 -0.3422  0.0092
 2021DECAN   C220192   7.866   8.847   6.155  0.3991 -0.0756  0.5732
 2021DECAN   C320193   7.769   8.958   6.200 -0.0956 -0.1748 -0.2436
 2021DECAN   C420194   7.622   8.944   6.157 -0.2231  0.1427  0.0810
 2021DECAN   C520195   7.545   9.070   6.200  0.1332  0.2326  0.4594
 2021DECAN   C620196   7.577   9.111   6.345 -0.2988  0.0139  0.6183
 2021DECAN   C720197   7.496   9.231   6.397 -0.7126 -0.0086  0.0319
 2021DECAN   C820198   7.522   9.363   6.321 -0.0819 -0.0365  0.1941
 2021DECAN   C920199   7.453   9.491   6.372  0.3763  0.3119 -0.0622
 2021DECAN  C1020200   7.500   9.612   6.289 -0.2080  0.0179 -0.8291
 2022DECAN   C120201   5.205   3.776  12.546 -0.2358 -0.4393 -0.2266
 2022DECAN   C220202   5.263   3.635  12.523 -0.1481 -0.3895 -0.3076
 2022DECAN   C320203   5.355   3.627  12.400  0.6994 -0.0581  0.2859
 2022DECAN   C420204   5.444   3.506  12.365  0.1973 -0.1643 -0.6615
 2022DECAN   C520205   5.553   3.546  12.264  0.2121  0.2769 -0.4734
 2022DECAN   C620206   5.620   3.425  12.197  0.6000 -0.2139  0.7715
 2022DECAN   C720207   5.683   3.474  12.065  0.0717  0.0297  0.6054
 2022DECAN   C820208   5.736   3.356  11.981 -0.1749  0.3560 -0.0192
 2022DECAN   C920209   5.811   3.397  11.853 -0.6334 -0.2604 -0.4898
 2022DECAN  C1020210   5.864   3.273  11.779 -0.0295 -0.2913 -0.0094
 2023DECAN   C120211   4.471   9.714   8.434 -0.6546  0.2232 -0.5123
 2023DECAN   C220212   4.397   9.631   8.540  0.0069 -0.0906 -0.2910
 2023DECAN   C320213   4.502   9.578   8.639  0.0309  0.3565 -0.0749
 2023DECAN   C420214   4.435   9.525   8.767  0.4447 -0.2192 -0.0921
 2023DECAN   C520215   4.332   9.412   8.747 -0.1946  0.3417 -0.0116
 2023DECAN   C620216   4.235   9.378   8.862  0.4114  0.1312  0.4416
 2023DECAN   C720217   4.166   9.243   8.834  0.0958  0.4867 -0.5491
 2023DECAN   C820218   4.043   9.224   8.925  0.3785  1.0551 -0.0437
 2023DECAN   C920219   4.064   9.266   9.072  1.1128  0.7657 -0.0588
 2023DECAN  C1020220   4.182   9.185   9.127  0.5816  0.1569  0.1962
 2024DECAN   C120221   6.081   8.282   9.927 -0.8905 -0.2070  0.0418
 2024DECAN   C220222   6.020   8.326  10.061  0.3118  0.4618  0.3835
 2024DECAN   C320223   5.892   8.407  10.034 -0.2738 -0.5927 -0.0693
 2024DECAN   C420224   5.800   8.436  10.153  0.1919  0.8705 -0.0418
 2024DECAN   C520225   5.851   8.557  10.234  0.0857  0.5036  0.5777
 2024DECAN   C620226   5.977   8.519  10.315  0.0115 -0.4703  0.2505
 2024DECAN   C720227   6.035   8.639  10.392  0.0043  0.0989 -0.6198
 2024DECAN   C820228   6.007   8.777  10.328 -0.6124  0.1939 -0.1511
 2024DECAN   C920229   6.074   8.887  10.412  0.0805 -0.0819 -0.3312
 2024DECAN  C1020230   6.045   9.026  10.352  0.2624 -0.2718 -0.8690
 2025DECAN   C120231   8.047   6.123  12.813 -0.0884 -0.1966 -0.7454
 2025DECAN   C220232   8.136   6.034  12.724 -0.2953 -0.2196 -0.9277
 2025DECAN   C320233   8.179   5.907  12.798 -0.2374  0.2077 -0.2221
 2025DECAN   C420234   8.257   5.942  12.926 -0.3101 -0.3789 -0.0143
 2025DECAN   C520235   8.186   6.057  13.000  0.5558  0.3697 -0.3267
 2025DECAN   C620236   8.273   6.135  13.099  0.5627  0.0835 -0.1074
 2025DECAN   C720237   8.197   6.256  13.159  0.2702 -0.1996  0.0989
 2025DECAN   C820238   8.263   6.332  13.275  0.1530 -0.5637  0.4068
 2025DECAN   C920239   8.214   6.478  13.288 -0.4041 -0.7413  0.3140
 2025DECAN  C1020240   8.284   6.557  13.400 -0.3345 -0.0080 -0.2453
 2026DECAN   C120241   3.832   6.807  11.724 -0.1999  0.3501 -0.4788
 2026DECAN   C220242   3.758   6.793  11.858  0.5685 -0.3550 -0.1221
 2026DECAN   C320243   3.617   6.734  11.840  0.1519  0.4811  0.3363
 2026DECAN   C420244   3.522   6.711  11.959 -0.5607 -0.1649 -0.3503
 2026DECAN   C520245   3.399   6.625  11.925 -0.2850 -0.7157  0.0240
 2026DECAN   C620246   3.312   6.705  11.827  0.5045  0.1382  0.0105
 2026DECAN   C720247   3.224   6.819  11.881 -0.3440 -0.1153 -0.8060
 2026DECAN   C820248   3.132   6.879  11.773 -0.7323  0.9853  0.1151
 2026DECAN   C920249   3.206   6.891  11.639 -0.5404 -0.3999  0.0840
 2026DECAN  C1020250   3.286   6.764  11.605 -0.3200 -0.2816  0.1585
 2027DECAN   C120251   5.991   2.822   9.405 -0.4657 -0.2299 -0.1216
 2027DECAN   C220252   6.036   2.840   9.259 -0.9979  0.9830 -0.1509
 2027DECAN   C320253   6.008   2.713   9.176  0.0827  0.3210  0.4583
 2027DECAN   C420254   6.020   2.741   9.025  0.4817 -0.0115  0.4301
 2027DECAN   C520255   6.151   2.811   8.982  0.0136  0.7253  0.1902
 2027DECAN   C620256   6.159   2.834   8.830  0.2197 -0.2379  0.0503
 2027DECAN   C720257   6.019   2.839   8.768  0.2576  0.6421  0.0274
 2027DECAN   C820258   6.017   2.861   8.615  0.0341 -0.2675 -0.1051
 2027DECAN   C920259   5.878   2.852   8.549 -0.0006 -0.3412 -0.0233
 2027DECAN  C1020260   5.763   2.916   8.628  0.5504 -0.4384  0.8704
 2028DECAN   C120261   6.448   6.136   7.165  0.0814 -0.2857  0.4665
 2028DECAN   C220262   6.563   6.188   7.253  0.1032  0.0217  0.2576
 2028DECAN   C320263   6.672   6.085   7.287  0.5635  0.4872  0.2063
 2028DECAN   C420264   6.765   6.138   7.397  0.4688  0.9959  0.0452
 2028DECAN   C520265   6.701   6.182   7.530  0.2468 -0.0442  0.2914
 2028DECAN   C620266   6.799   6.274   7.605  0.1274  0.1065  0.2618
 2028DECAN   C720267   6.901   6.199   7.692 -0.1385 -0.3266  0.2014
 2028DECAN   C820268   6.983   6.287   7.789  0.0976 -0.2629 -0.0564
 2028DECAN   C920269   7.086   6.212   7.876  0.1864 -0.2482 -0.1490
 2028DECAN  C1020270   7.140   6.298   7.992 -0.0702 -0.4864  0.1477
 2029DECAN   C120271   4.507   2.060  11.315 -0.4267  0.5146  0.2874
 2029DECAN   C220272   4.418   1.954  11.247  0.0944  0.0636  0.3008
 2029DECAN   C320273   4.274   1.963  11.302  0.0591  0.2300  0.1842
 2029DECAN   C420274   4.169   1.874  11.233 -0.0628  0.0318  0.6231
 2029DECAN   C520275   4.027   1.872  11.292 -0.1175 -0.0085  0.4875
 2029DECAN   C620276   3.941   1.757  11.236 -0.1863  0.2836 -0.0088
 2029DECAN   C720277   3.799   1.746  11.292 -0.1831  0.3194  0.0057
 2029DECAN   C820278   3.724   1.629  11.225  0.1492  0.1464 -0.0653
 2029DECAN   C920279   3.572   1.622  11.248  0.1596  0.0260 -0.0311
 2029DECAN  C1020280   3.521   1.519  11.146 -0.2111  0.0844  0.0917
 2030DECAN   C120281   9.197   7.020  13.920 -0.3099 -0.7493 -0.2877
 2030DECAN   C220282   9.212   7.082  13.780  0.0022 -0.3159 -0.0686
 2030DECAN   C320283   9.239   6.971  13.676 -0.0136 -0.0592 -0.3487
 2030DECAN   C420284   9.258   7.029  13.535 -1.2279  0.1345 -0.4416
 2030DECAN   C520285   9.278   6.921  13.427 -0.5680 -0.3039  0.1103
 2030DECAN   C620286   9.306   6.971  13.284 -0.1653  0.2266  0.3703
 2030DECAN   C720287   9.404   7.089  13.273  0.6397 -0.5116 -0.5375
 2030DECAN   C820288   9.410   7.166  13.139 -0.0654  0.0462 -0.2547
 2030DECAN   C920289   9.282   7.228  13.080 -0.5959 -0.5414  0.2562
 2030DECAN  C1020290   9.212   7.331  13.170  1.0103  0.3288  0.5568
 2031DECAN   C120291   7.928   0.871   9.097  0.5890  0.4516  0.3702
 2031DECAN   C220292   7.893   0.730   9.045  0.5128  0.6202 -0.0403
 2031DECAN   C320293   7.858   0.720   8.895  0.0979 -0.2005  0.1045
 2031DECAN   C420294   7.724   0.788   8.864  0.4589  0.5833  0.2191
 2031DECAN   C520295   7.703   0.930   8.918  0.3628  0.3886  0.6940
 2031DECAN   C620296   7.558   0.981   8.934  0.0137 -0.3314 -0.0943
 2031DECAN   C720297   7.516   1.073   8.819 -0.2085 -0.5406 -0.1785
 2031DECAN   C820298   7.362   1.081   8.816 -0.2041 -0.2188  0.3334
 2031DECAN   C920299   7.319   1.186   8.712 -0.5318 -0.4116  0.2727
 2031DECAN  C1020300   7.349   1.327   8.766  0.2776 -0.3614 -0.2958
 2032DECAN   C120301   7.645   2.758  10.241  0.3864 -0.0388  0.1301
 2032DECAN   C220302   7.784   2.789  10.300  0.4738 -0.6605  0.2574
 2032DECAN   C320303   7.755   2.856  10.436  0.3907 -0.4851  0.1527
 2032DECAN   C420304   7.885   2.881  10.514  0.3036  0.2912  0.0563
 2032DECAN   C520305   7.870   2.982  10.630  0.0936  0.7303 -0.3489
 2032DECAN   C620306   8.010   3.033  10.669  0.2349  0.4225 -0.4497
 2032DECAN   C720307   8.014   3.171  10.738  0.1334  0.2032 -0.0001
 2032DECAN   C820308   8.153   3.210  10.790  0.2627  0.2559 -0.3838
 2032DECAN   C920309   8.140   3.351  10.852 -0.6177 -0.1384  0.3444
 2032DECAN  C1020310   8.007   3.352  10.930 -0.6799  0.0078  0.2361
 2033DECAN   C120311  10.453   0.974  10.135 -0.2321 -0.1068  0.1241
 2033DECAN   C220312  10.302   0.947  10.120 -0.2121  0.0097 -0.2948
 2033DECAN   C320313  10.269   0.798  10.102 -0.0435 -0.0442 -0.1594
 2033DECAN   C420314  10.118   0.784  10.075 -0.0178 -0.0941 -0.2831
 2033DECAN   C520315  10.039   0.657  10.112 -0.3101  0.1344 -0.1203
 2033DECAN   C620316   9.891   0.690  10.084 -0.4451  0.0702  0.5065
 2033DECAN   C720317   9.826   0.811  10.152  0.0341  0.0749  0.9614
 2033DECAN   C820318   9.862   0.951  10.099 -0.2029 -0.1008  0.3308
 2033DECAN   C920319   9.782   0.994   9.974  0.6147  0.4092 -0.0292
 2033DECAN  C1020320   9.807   1.138   9.928  0.4331  0.5440  0.2876
 2034DECAN   C120321   4.672   3.516   8.723  0.3875 -0.0425  0.0944
 2034DECAN   C220322   4.586   3.466   8.840  0.1806  0.4444  0.1542
 2034DECAN   C320323   4.675   3.466   8.966  0.7788  0.9636 -0.2576
 2034DECAN   C420324   4.602   3.436   9.099  0.2518 -0.1324 -0.7795
 2034DECAN   C520325   4.690   3.440   9.225 -0.0233 -0.5989 -0.5707
 2034DECAN   C620326   4.787   3.320   9.222  0.6559 -0.0597 -0.4781
 2034DECAN   C720327   4.853   3.297   9.359  0.3796  0.4703 -0.2523
 2034DECAN   C820328   4.928   3.162   9.353 -0.0763  0.1908  0.2005
 2034DECAN   C920329   4.844   3.034   9.365 -0.2624  0.1440 -1.3960
 2034DECAN  C1020330   4.937   2.911   9.357  0.1137  0.3394 -0.1098
 2035DECAN   C120331  10.588   9.547   7.373 -0.2334  0.4951 -0.1604
 2035DECAN   C220332  10.600   9.510   7.522  0.1049  0.6948 -0.1381
 2035DECAN   C320333  10.737   9.502   7.593 -0.1058 -0.6981  0.1363
 2035DECAN   C420334  10.731   9.463   7.741 -0.0170  0.2148  0.3848
 2035DECAN   C520335  10.871   9.423   7.793  0.2189  0.2695 -0.2112
 2035DECAN   C620336  10.881   9.430   7.946 -0.0606  0.5738 -0.2035
 2035DECAN   C720337  10.793   9.314   7.996 -0.9268  1.4264  0.2836
 2035DECAN   C820338  10.765   9.320   8.147 -0.3022  0.2749  0.4551
 2035DECAN   C920339  10.884   9.369   8.232  0.5132 -0.5341 -0.2008
 2035DECAN  C1020340  10.925   9.510   8.185 -0.3075  0.0840  0.9035
 2036DECAN   C120341   5.565   0.563   7.508  0.1068  0.2184 -0.1980
 2036DECAN   C220342   5.680   0.489   7.578 -0.0250  0.0066 -0.2050
 2036DECAN   C320343   5.664   0.336   7.577  0.5494 -0.0623  0.5565
 2036DECAN   C420344   5.546   0.286   7.663  0.9209 -0.6591  0.7296
 2036DECAN   C520345   5.563   0.332   7.809  0.1981  0.1775  0.5571
 2036DECAN   C620346   5.431   0.295   7.880 -0.0949 -0.3791 -0.2607
 2036DECAN   C720347   5.413   0.369   8.013 -0.8339 -0.2993 -0.3978
 2036DECAN   C820348   5.401   0.523   8.008  0.1526 -0.1816  0.3545
 2036DECAN   C920349   5.508   0.589   7.918 -0.4724 -0.1593 -0.3883
 2036DECAN  C1020350   5.504   0.741   7.899  0.2174 -0.1612 -0.5773
 2037DECAN   C120351   6.233   5.547   5.801 -0.2625  0.2119 -0.0053
 2037DECAN   C220352   6.283   5.519   5.944 -0.2545  0.3947  0.0272
 2037DECAN   C320353   6.414   5.438   5.932 -0.3833  0.2255 -0.2406
 2037DECAN   C420354   6.531   5.512   5.863 -0.0188 -0.3557 -0.2497
 2037DECAN   C520355   6.494   5.554   5.719 -0.5796  1.0772  0.3015
 2037DECAN   C620356   6.615   5.605   5.638 -0.4464  0.0395 -0.1633
 2037DECAN   C720357   6.576   5.666   5.502 -0.3408  0.3267 -0.0646
 2037DECAN   C820358   6.582   5.565   5.386  0.3571  0.8368 -0.4805
 2037DECAN   C920359   6.725   5.526   5.345  0.1943  0.2257 -0.4732
 2037DECAN  C1020360   6.714   5.413   5.241 -0.1921 -0.2391  0.0643
 2038DECAN   C120361   7.125   8.854  10.607 -0.2595  0.2299  0.4176
 2038DECAN   C220362   7.029   8.862  10.727 -0.0360 -0.4916  0.6502
 2038DECAN   C320363   6.947   8.732  10.745 -0.5111 -0.2119  0.5453
 2038DECAN   C420364   7.037   8.621  10.801 -0.4552 -0.3666  0.1492
 2038DECAN   C520365   6.977   8.480  10.818 -0.6609 -0.2968 -0.0003
 2038DECAN   C620366   7.075   8.377  10.875 -0.2548 -0.0346 -0.2200
 2038DECAN   C720367   7.051   8.231  10.833 -0.4070 -0.1395  0.2224
 2038DECAN   C820368   7.118   8.133  10.932 -0.2169 -0.2200  0.0153
 2038DECAN   C920369   7.103   7.983  10.901  0.5014 -0.2426 -0.2378
 2038DECAN  C1020370   6.958   7.933  10.886  0.4220  0.0612 -0.4922
 2039DECAN   C120371   1.507   9.549   7.965  0.7306  0.1177  0.6491
 2039DECAN   C220372   1.580   9.560   7.830  0.1923  0.0692  0.3494
 2039DECAN   C320373   1.724   9.510   7.849  0.1222 -0.3917 -0.2820
 2039DECAN   C420374   1.743   9.372   7.915 -0.3686 -0.1836  0.3019
 2039DECAN   C520375   1.886   9.316   7.908 -0.4735 -0.3709 -0.3055
 2039DECAN   C620376   1.937   9.288   7.765  0.1412 -0.1982 -0.1207
 2039DECAN   C720377   1.954   9.423   7.694 -0.0363 -0.2263 -0.2140
 2039DECAN   C820378   1.969   9.401   7.542 -0.6246  0.2742 -0.3503
 2039DECAN   C920379   2.073   9.298   7.495 -0.1577  0.6946 -0.2488
 2039DECAN  C1020380   2.081   9.263   7.345 -0.0903 -0.5768  0.0413
 2040DECAN   C120381   5.897   9.167   3.934  0.5824 -0.5185 -0.3795
 2040DECAN   C220382   5.803   9.047   3.952 -0.3551  0.2021 -0.4003
 2040DECAN   C320383   5.690   9.077   4.053 -0.2192 -0.1291 -0.1488
 2040DECAN   C420384   5.738   9.120   4.193 -0.1655  0.3112 -0.2987
 2040DECAN   C520385   5.616   9.160   4.279 -0.4313 -0.3514 -0.3550
 2040DECAN   C620386   5.654   9.210   4.420 -0.0908 -0.0181 -0.5605
 2040DECAN   C720387   5.701   9.356   4.415 -0.1650  0.0272 -0.0167
 2040DECAN   C820388   5.721   9.425   4.551  0.4368 -0.5377  0.1829
 2040DECAN   C920389   5.846   9.362   4.616  0.8137  0.0054 -0.0025
 2040DECAN  C1020390   5.858   9.373   4.769 -0.0375  0.6543  0.0221
 2041DECAN   C120391   3.919   4.076   9.147  0.0464  0.4605 -0.2806
 2041DECAN   C220392   4.010   4.042   9.027 -0.4102 -0.3780 -0.3966
 2041DECAN   C320393   3.929   4.014   8.899 -0.5660 -0.6315 -0.2433
 2041DECAN   C420394   4.025   4.025   8.779 -0.4268 -0.0011 -0.0770
 2041DECAN   C520395   4.145   3.929   8.772 -0.2045  0.2781 -0.0810
 2041DECAN   C620396   4.242   3.924   8.892 -0.2169 -0.6291 -0.1059
 2041DECAN   C720397   4.380   3.869   8.853  0.1935  0.1156  0.2778
 2041DECAN   C820398   4.439   3.796   8.975  0.3899  0.1780  0.2197
 2041DECAN   C920399   4.482   3.908   9.072 -0.1927  0.5715  0.0290
 2041DECAN  C1020400   4.559   3.858   9.196 -0.1235  0.0635 -0.2169
 2042DECAN   C120401   9.970  10.408   7.355  0.1837  0.2525  0.0671
 2042DECAN   C220402  10.109  10.473   7.371  0.0491  0.4613  0.3892
 2042DECAN   C320403  10.237  10.388   7.374  0.0913  0.5179  0.2180
 2042DECAN   C420404  10.243  10.297   7.498 -0.1564  0.1575 -0.0343
 2042DECAN   C520405  10.387  10.257   7.533 -0.0727  0.1278 -0.4094
 2042DECAN   C620406  10.398  10.145   7.638 -0.3331 -0.3278 -0.8627
 2042DECAN   C720407  10.539  10.083   7.646 -0.1552  0.1523 -0.2155
 2042DECAN   C820408  10.583  10.029   7.509 -0.2334  0.0086 -0.1845
 2042DECAN   C920409  10.715   9.951   7.495 -0.3080 -0.1774  0.1419
 2042DECAN  C1020410  10.737   9.908   7.349 -0.2958  0.3556 -0.0171
 2043DECAN   C120411   2.758   9.706  13.888 -0.0992  0.2493 -0.0609
 2043DECAN   C220412   2.722   9.825  13.798 -0.2228  0.2885  0.0404
 2043DECAN   C320413   2.827   9.862  13.691  0.1037  0.2005  0.3295
 2043DECAN   C420414   2.777   9.951  13.576 -0.2837  0.1039  0.4221
 2043DECAN   C520415   2.625   9.940  13.551 -0.3042  0.8206  0.2099
 2043DECAN   C620416   2.572  10.012  13.426 -0.3001 -0.3280 -0.4662
 2043DECAN   C720417   2.421   9.990  13.407 -0.4952  0.4887  0.0730
 2043DECAN   C820418   2.374  10.059  13.277 -0.3533  0.3891 -0.0316
 2043DECAN   C920419   2.417   9.987  13.148  0.5207  0.4102  0.2424
 2043DECAN  C1020420   2.569   9.968  13.134  0.4043 -0.2326 -0.1577
 2044DECAN   C120421   4.176   8.181  11.771 -0.5625 -0.3078  0.3421
 2044DECAN   C220422   4.210   8.130  11.912  0.3405 -0.6092  0.0176
 2044DECAN   C320423   4.353   8.162  11.960  0.2711  0.3839 -0.4134
 2044DECAN   C420424   4.397   8.098  12.093 -0.6072  0.2604 -0.1781
 2044DECAN   C520425   4.544   8.116  12.135 -0.4621  0.0388 -0.5814
 2044DECAN   C620426   4.606   8.245  12.193 -0.0258 -0.4464  0.0362
 2044DECAN   C720427   4.758   8.246  12.171  0.0469 -0.1960  0.5454
 2044DECAN   C820428   4.795   8.258  12.022 -0.1617  0.2397  0.5272
 2044DECAN   C920429   4.740   8.382  11.949  0.1781  0.0424 -0.0721
 2044DECAN  C1020430   4.795   8.396  11.806  0.4379  0.3888  0.0612
 2045DECAN   C120431   7.171   3.302   7.188 -0.0639  0.4623 -0.2887
 2045DECAN   C220432   7.102   3.170   7.150 -0.0611  0.2863  0.3005
 2045DECAN   C320433   6.955   3.160   7.196 -0.1049  0.1599  0.1354
 2045DECAN   C420434   6.871   3.262   7.117  0.0396  0.0502 -0.1591
 2045DECAN   C520435   6.863   3.239   6.964  0.5747 -0.2000 -0.1536
 2045DECAN   C620436   6.771   3.130   6.907 -0.1036  0.2308  0.0981
 2045DECAN   C720437   6.771   3.108   6.755  0.3643 -0.5071  0.1951
 2045DECAN   C820438   6.686   2.991   6.704 -0.0682 -0.2162  0.2402
 2045DECAN   C920439   6.676   2.973   6.551 -0.1775 -0.5045  0.2790
 2045DECAN  C1020440   6.547   2.901   6.509 -0.5595  0.4952 -0.2942
 2046DECAN   C120441   7.871   5.942  10.506  0.0157  0.0231 -0.4392
 2046DECAN   C220442   7.842   6.079  10.568  0.2412 -0.0668 -0.1378
 2046DECAN   C320443   7.975   6.151  10.600  0.2477 -0.0469 -0.2097
 2046DECAN   C420444   7.969   6.283  10.678  0.7800  0.0554 -0.3379
 2046DECAN   C520445   8.107   6.325  10.732  0.6948 -0.3726  0.2209
 2046DECAN   C620446   8.119   6.414  10.858  0.0065 -0.2409  0.1977
 2046DECAN   C720447   8.255   6.410  10.929  0.1204  0.7502  0.0452
 2046DECAN   C820448   8.271   6.502  11.051  0.0072  0.5831  0.1878
 2046DECAN   C920449   8.417   6.527  11.093  0.0026  0.4231  0.2967
 2046DECAN  C1020450   8.464   6.403  11.172  0.3661  0.1403 -0.3559
 2047DECAN   C120451   9.843   3.229   6.746 -0.5632  0.1987  0.1175
 2047DECAN   C220452   9.750   3.140   6.661  0.1298 -0.5690  0.1431
 2047DECAN   C320453   9.813   3.025   6.580 -0.4473 -0.3125 -0.6795
 2047DECAN   C420454   9.835   2.898   6.664 -0.1345 -0.0020 -0.2873
 2047DECAN   C520455   9.894   2.775   6.592 -0.0871 -0.3465  0.3358
 2047DECAN   C620456  10.040   2.795   6.548 -0.2233  0.1404  0.0997
 2047DECAN   C720457  10.049   2.900   6.436  0.2594 -0.4210 -0.3900
 2047DECAN   C820458  10.189   2.958   6.409  0.0106  0.2484 -0.2507
 2047DECAN   C920459  10.233   3.044   6.530  0.3443 -0.0822 -0.1358
 2047DECAN  C1020460  10.378   3.093   6.515  0.2852  0.0409 -0.3112
 2048DECAN   C120461   5.681   4.794   5.091  0.0816 -0.2320  0.2656
 2048DECAN   C220462   5.802   4.790   4.995  0.0346 -0.3672  0.2122
 2048DECAN   C320463   5.770   4.731   4.856  0.2283 -0.1995  0.0969
 2048DECAN   C420464   5.888   4.730   4.758  0.6628 -0.1095  0.6125
 2048DECAN   C520465   5.859   4.676   4.616 -0.4354  0.4284  0.6238
 2048DECAN   C620466   5.981   4.592   4.573 -0.5214  0.5456  0.1448
 2048DECAN   C720467   5.973   4.553   4.425  0.1579  0.4361  0.1364
 2048DECAN   C820468   6.069   4.447   4.368 -0.4415 -0.1598  0.2207
 2048DECAN   C920469   6.080   4.439   4.214 -0.0550 -0.0542  0.2413
 2048DECAN  C1020470   6.212   4.382   4.159 -0.2550  0.0989 -0.4113
 2049DECAN   C120471   9.321   0.732   8.115 -0.1719  0.1728 -0.4407
 2049DECAN   C220472   9.420   0.615   8.103 -0.1616  0.1097  0.2150
 2049DECAN   C320473   9.351   0.480   8.079 -0.0235  0.0259  0.2908
 2049DECAN   C420474   9.236   0.448   8.176  0.1686 -0.3440  0.4005
 2049DECAN   C520475   9.175   0.307   8.166 -0.2899 -0.1301  0.1178
 2049DECAN   C620476   9.059   0.287   8.265 -0.2924 -0.3815  0.0645
 2049DECAN   C720477   8.953   0.399   8.255  0.2461  0.1309  0.0110
 2049DECAN   C820478   8.999   0.544   8.275  0.1208  0.2535 -0.5743
 2049DECAN   C920479   8.879   0.640   8.259  0.0015  0.2704  0.3613
 2049DECAN  C1020480   8.912   0.789   8.274  0.4992  0.1709  0.2699
 2050DECAN   C120481  10.158   8.886   7.320 -0.6873 -0.2220  0.0251
 2050DECAN   C220482  10.067   8.773   7.270 -0.5776 -0.2853 -0.0337
 2050DECAN   C320483  10.120   8.683   7.156 -0.1384 -0.2682  0.1569
 2050DECAN   C420484  10.113   8.761   7.024 -0.0905 -0.0087  0.3052
 2050DECAN   C520485  10.190   8.686   6.913  0.0968  0.0064  0.4249
 2050DECAN   C620486  10.218   8.775   6.791 -0.6483 -0.4802 -0.1073
 2050DECAN   C720487  10.297   8.716   6.673  0.2308  0.9547 -0.2599
 2050DECAN   C820488  10.330   8.813   6.558  0.1292  0.9174 -0.3203
 2050DECAN   C920489  10.384   8.729   6.440 -0.1340  0.4371 -0.1005
 2050DECAN  C1020490  10.503   8.641   6.482 -0.6929 -0.2436  0.0766
 2051DECAN   C120491   2.547   6.292   9.192  0.6208 -0.4416 -0.2601
 2051DECAN   C220492   2.448   6.175   9.192  0.2313 -0.1177  0.1951
 2051DECAN   C320493   2.383   6.129   9.324  0.2402  0.0364  0.2536
 2051DECAN   C420494   2.484   6.060   9.418  0.0113 -0.1025  0.3982
 2051DECAN   C520495   2.420   5.995   9.542 -0.1396 -0.6577  0.0341
 2051DECAN   C620496   2.534   5.937   9.629 -0.2208 -0.2595  0.4152
 2051DECAN   C720497   2.482   5.864   9.754 -0.1917 -0.7852  0.1244
 2051DECAN   C820498   2.587   5.786   9.836  0.3848 -0.3110 -0.1560
 2051DECAN   C920499   2.683   5.687   9.765  0.2739 -0.2528 -0.3893
 2051DECAN  C1020500   2.625   5.547   9.740  0.3758 -0.3437 -0.1194
 2052DECAN   C120501   6.631   9.884   4.283 -0.5061 -0.3784 -0.0545
 2052DECAN   C220502   6.640   9.749   4.209  0.1549 -0.2988 -0.1265
 2052DECAN   C320503   6.551   9.766   4.085  0.0293  0.3565  0.0474
 2052DECAN   C420504   6.557   9.650   3.984  0.1744  0.2119  0.2212
 2052DECAN   C520505   6.498   9.521   4.044 -0.8332  0.3676 -0.4004
 2052DECAN   C620506   6.529   9.395   3.961 -0.3348  0.0148  0.3072
 2052DECAN   C720507   6.458   9.264   3.998  0.3079 -0.4156  0.0275
 2052DECAN   C820508   6.346   9.207   3.909 -0.1565  0.3685  0.0989
 2052DECAN   C920509   6.308   9.063   3.949 -0.1164  0.4680  0.4999
 2052DECAN  C1020510   6.412   8.952   3.921 -0.1789  0.4237  0.4431
 2053DECAN   C120511   7.119   7.625   7.644 -0.1229  0.5097 -0.4065
 2053DECAN   C220512   7.160   7.486   7.591  0.6519  0.4342  0.3564
 2053DECAN   C320513   7.303   7.486   7.536  0.5584  0.5671  0.1135
 2053DECAN   C420514   7.364   7.346   7.514 -0.1370  0.2932 -0.1026
 2053DECAN   C520515   7.275   7.262   7.421  0.3704 -0.3190 -0.0384
 2053DECAN   C620516   7.134   7.229   7.471  0.2834  0.4199  0.2188
 2053DECAN   C720517   7.028   7.207   7.361  0.1138  0.3610  0.3944
 2053DECAN   C820518   6.903   7.142   7.424  0.0705  0.0514 -0.0082
 2053DECAN   C920519   6.797   7.130   7.313 -0.1427  0.2833  0.1675
 2053DECAN  C1020520   6.663   7.063   7.348  0.1053  0.0065  0.5938
 2054DECAN   C120521  10.185   2.738   9.991 -0.2126  0.3477 -0.6344
 2054DECAN   C220522  10.068   2.782  10.081  0.2977  0.0248  0.1913
 2054DECAN   C320523  10.088   2.908  10.168 -0.2972  0.4111 -0.2235
 2054DECAN   C420524   9.957   2.945  10.241 -0.3373 -0.3442  0.1040
 2054DECAN   C520525   9.981   3.075  10.321  0.5477 -0.5323  0.1562
 2054DECAN   C620526  10.043   3.170  10.217 -0.4410 -0.2033 -0.1401
 2054DECAN   C720527  10.081   3.302  10.288  0.0447 -0.2554 -0.3026
 2054DECAN   C820528  10.161   3.403  10.203 -0.6715  0.2029 -0.4414
 2054DECAN   C920529  10.236   3.513  10.281 -0.1356 -0.5484  0.1274
 2054DECAN  C1020530  10.300   3.612  10.181 -0.3244 -0.1075  0.4400
 2055DECAN   C120531   4.074   5.374  10.594 -0.4132 -0.2968 -0.0450
 2055DECAN   C220532   3.997   5.348  10.725  0.0744  0.6238  0.4423
 2055DECAN   C320533   4.044   5.241  10.826  0.0083  0.0587 -0.1208
 2055DECAN   C420534   3.949   5.220  10.945  0.8619  0.0148  0.5618
 2055DECAN   C520535   3.897   5.343  11.022 -0.1005 -0.3248  0.4723
 2055DECAN   C620536   3.852   5.307  11.165 -0.0081 -0.3077  0.5061
 2055DECAN   C720537   3.759   5.414  11.225 -0.0641 -0.0242 -0.0797
 2055DECAN   C820538   3.686   5.386  11.358 -0.6842 -0.0471 -0.4204
 2055DECAN   C920539   3.630   5.513  11.424 -0.6611 -0.3540  0.1977
 2055DECAN  C1020540   3.542   5.502  11.550 -0.5037 -0.8418  0.2654
 2056DECAN   C120541   7.058   7.196  10.280 -0.7205  0.2302 -0.4480
 2056DECAN   C220542   6.960   7.163  10.393  0.1069 -0.2717  0.1357
 2056DECAN   C320543   7.014   7.105  10.525 -0.2132 -0.4262  0.1997
 2056DECAN   C420544   6.914   7.050  10.629 -0.3475 -0.1390  0.2227
 2056DECAN   C520545   6.975   7.003  10.763 -0.1188 -0.1091  0.1287
 2056DECAN   C620546   7.059   7.098  10.850 -0.2802  0.3516 -0.2133
 2056DECAN   C720547   7.069   7.061  10.999  0.0873  0.0011 -0.3226
 2056DECAN   C820548   7.131   7.173  11.085  0.5307 -0.5261  0.0519
 2056DECAN   C920549   7.185   7.135  11.224 -0.0104 -0.5551  0.2566
 2056DECAN  C1020550   7.284   7.240  11.280 -0.0737 -0.0978 -0.4729
 2057DECAN   C120551   7.520   0.429  12.851  0.6473 -0.2448  0.1417
 2057DECAN   C220552   7.538   0.575  12.896  0.3666 -0.3152  0.4937
 2057DECAN   C320553   7.597   0.598  13.036 -0.0248  0.2820  0.5668
 2057DECAN   C420554   7.607   0.749  13.065  0.3483  0.4273 -0.2831
 2057DECAN   C520555   7.602   0.787  13.214 -1.1096 -0.2341 -0.1361
 2057DECAN   C620556   7.619   0.937  13.245  0.3453 -0.3950 -0.0917
 2057DECAN   C720557   7.512   1.038  13.199  0.3629  0.1974  1.1419
 2057DECAN   C820558   7.556   1.185  13.212 -0.3966  0.5024  0.3455
 2057DECAN   C920559   7.452   1.285  13.158 -0.3813  0.0877 -0.4618
 2057DECAN  C1020560   7.476   1.428  13.210 -0.3017 -0.1232  0.0951
 2058DECAN   C120561   1.034   8.205  11.570  0.5906  0.2655 -0.5185
 2058DECAN   C220562   0.894   8.147  11.600  0.5843  0.2048 -0.6625
 2058DECAN   C320563   0.869   7.998  11.572 -0.6282  0.2935 -0.1233
 2058DECAN   C420564   0.895   7.945  11.429 -0.6052  0.3950 -0.1556
 2058DECAN   C520565   0.879   7.795  11.398 -0.3694  0.4122 -0.3634
 2058DECAN   C620566   0.921   7.759  11.254  0.1605 -0.8615  0.0949
 2058DECAN   C720567   0.922   7.607  11.227 -0.0705 -0.8008 -0.2625
 2058DECAN   C820568   1.045   7.536  11.286 -0.0897 -0.2716  0.4275
 2058DECAN   C920569   1.060   7.386  11.253 -0.7317 -0.2781  0.1643
 2058DECAN  C1020570   1.175   7.316  11.328  0.3887  0.5554 -0.7447
 2059DECAN   C120571   2.777   6.710   9.138  0.0642  0.0223  0.0916
 2059DECAN   C220572   2.930   6.697   9.137  0.0968  0.3951 -0.2732
 2059DECAN   C320573   2.991   6.635   9.010 -0.1681 -0.3962 -0.0191
 2059DECAN   C420574   2.975   6.716   8.880 -0.5924 -0.5843 -0.0866
 2059DECAN   C520575   3.035   6.640   8.759 -0.3017 -0.0767 -0.2633
 2059DECAN   C620576   2.956   6.508   8.747 -0.4755 -0.0850  0.7928
 2059DECAN   C720577   2.805   6.526   8.771 -0.5909 -0.0653  0.0854
 2059DECAN   C820578   2.709   6.409   8.744 -0.1331 -0.4172 -0.0136
 2059DECAN   C920579   2.734   6.280   8.825  0.2313 -0.0132  0.5205
 2059DECAN  C1020580   2.669   6.152   8.769  0.0075  0.4777 -0.3558
 2060DECAN   C120581   6.631   2.710  10.028 -0.3593 -0.6499 -0.1314
 2060DECAN   C220582   6.546   2.824   9.968  0.0510 -0.5816 -0.5918
 2060DECAN   C320583   6.402   2.779   9.937 -0.3553 -0.0488  0.4849
 2060DECAN   C420584   6.292   2.886   9.924 -0.3645 -0.0955  0.1664
 2060DECAN   C520585   6.247   2.952  10.056 -0.3994  0.0449  0.0847
 2060DECAN   C620586   6.117   3.033  10.051 -0.0591  0.5627 -0.5417
 2060DECAN   C720587   6.084   3.089  10.190  0.3587 -0.2017 -0.1284
 2060DECAN   C820588   6.059   2.975  10.290 -0.2176 -0.1439 -0.2004
 2060DECAN   C920589   6.007   3.020  10.428  0.3146 -0.0431 -0.0290
 2060DECAN  C1020590   6.034   2.918  10.541  0.9108  0.7492  0.5541
 2061DECAN   C120591   4.647   7.563   4.116  0.0672  0.2407  0.0364
 2061DECAN   C220592   4.568   7.452   4.189  0.2674  0.1130  0.0611
 2061DECAN   C320593   4.639   7.316   4.194 -0.0922 -0.0926 -0.3214
 2061DECAN   C420594   4.539   7.214   4.252  0.2934  0.0025  0.5280
 2061DECAN   C520595   4.572   7.065   4.269  0.2933 -0.0875 -0.2452
 2061DECAN   C620596   4.462   6.995   4.350 -0.1331  0.7653 -0.0814
 2061DECAN   C720597   4.503   6.851   4.384 -0.3161  0.6288 -0.4335
 2061DECAN   C820598   4.377   6.773   4.427 -0.0310  0.3861 -0.0256
 2061DECAN   C920599   4.279   6.841   4.523  0.1629  0.4988  0.0925
 2061DECAN  C1020600   4.158   6.761   4.574  0.5892 -0.3041 -0.1545
 2062DECAN   C120601   4.548   5.239   6.273  0.5329 -0.3836  0.7312
 2062DECAN   C220602   4.603   5.296   6.406  0.0071  0.2765  0.6727
 2062DECAN   C320603   4.715   5.401   6.397 -0.0530  0.3179  0.3999
 2062DECAN   C420604   4.775   5.427   6.536  0.0673 -0.0668  0.4186
 2062DECAN   C520605   4.877   5.542   6.540 -0.3337  0.3160 -0.2116
 2062DECAN   C620606   4.943   5.574   6.676  0.2922 -0.6487 -0.2763
 2062DECAN   C720607   5.077   5.648   6.665 -0.0448 -0.0205 -0.2041
 2062DECAN   C820608   5.135   5.702   6.797  0.2790 -0.0494 -0.3326
 2062DECAN   C920609   5.176   5.602   6.906 -0.3106  0.0865  0.0169
 2062DECAN  C1020610   5.296   5.508   6.884 -0.5345 -0.0368 -0.6815
 2063DECAN   C120611   4.540   1.006   9.432 -0.7298  0.0251 -0.6000
 2063DECAN   C220612   4.578   0.922   9.309 -0.5436 -0.2333 -0.3664
 2063DECAN   C320613   4.479   0.951   9.195 -0.7230 -0.0515 -0.1661
 2063DECAN   C420614   4.481   0.839   9.089  0.0356 -0.0641 -0.1387
 2063DECAN   C520615   4.446   0.697   9.137  0.1365  0.1641  0.6164
 2063DECAN   C620616   4.423   0.607   9.015  0.0073  0.2517  0.5747
 2063DECAN   C720617   4.353   0.478   9.062  0.3658 -0.4358 -0.7312
 2063DECAN   C820618   4.414   0.419   9.191 -0.3711  0.2366 -0.0687
 2063DECAN   C920619   4.347   0.292   9.247  0.0096 -0.1079 -0.3906
 2063DECAN  C1020620   4.406   0.242   9.380 -0.1207 -0.0674 -0.3169
 2064DECAN   C120621   3.092  10.986   7.815  0.5814 -0.0332 -0.0209
 2064DECAN   C220622   2.976  10.912   7.884  0.2817  0.0766 -0.4015
 2064DECAN   C320623   2.885  11.025   7.936 -0.4090 -0.5247 -0.2900
 2064DECAN   C420624   2.942  11.109   8.053 -0.6179 -0.6061 -0.1294
 2064DECAN   C520625   2.847  11.220   8.102 -0.1817 -0.4961  0.4694
 2064DECAN   C620626   2.920   0.062   8.207 -0.1649  0.1957 -0.1080
 2064DECAN   C720627   2.817   0.170   8.245 -0.0817  0.4441 -0.5690
 2064DECAN   C820628   2.848   0.239   8.380 -0.2271 -0.1902 -0.2065
 2064DECAN   C920629   2.763   0.363   8.412 -0.1566 -0.0845 -0.4226
 2064DECAN  C1020630   2.616   0.335   8.446 -0.1034  0.4897  0.3155
 2065DECAN   C120631   7.326   9.582  10.391 -0.8543  0.5148  0.1117
 2065DECAN   C220632   7.349   9.632  10.248  0.6137  0.0190  0.1569
 2065DECAN   C320633   7.254   9.582  10.137  0.7380  0.0038  0.0576
 2065DECAN   C420634   7.288   9.628   9.994  0.1970  0.0363 -0.0608
 2065DECAN   C520635   7.280   9.779   9.968 -0.0186  0.0512  0.0832
 2065DECAN   C620636   7.315   9.815   9.822  0.3840  0.4296  0.2725
 2065DECAN   C720637   7.277   9.957   9.776  0.1189  0.3133  0.1363
 2065DECAN   C820638   7.333  10.014   9.645  0.0132 -0.0282 -0.0593
 2065DECAN   C920639   7.259  10.142   9.600  0.2291  0.1272  0.0287
 2065DECAN  C1020640   7.306  10.203   9.466 -0.1652  0.1519 -0.0972
 2066DECAN   C120641   6.502   9.791   6.968  0.1579 -0.4845  0.5190
 2066DECAN   C220642   6.438   9.819   6.831  0.0153 -0.0632  0.6710
 2066DECAN   C320643   6.524   9.757   6.719 -0.3302  0.3228  0.1824
 2066DECAN   C420644   6.472   9.759   6.574  0.7571  0.0044 -0.2223
 2066DECAN   C520645   6.537   9.669   6.468  0.1184 -0.0257 -0.5925
 2066DECAN   C620646   6.690   9.680   6.459  0.1172  0.2429 -0.2786
 2066DECAN   C720647   6.776   9.585   6.374  0.5071  0.2996  0.0452
 2066DECAN   C820648   6.799   9.622   6.226  0.2930  0.4509  0.0477
 2066DECAN   C920649   6.876   9.512   6.150 -0.1096  0.3223 -0.1783
 2066DECAN  C1020650   6.880   9.529   5.997  0.9308 -0.4074 -0.2432
 2067DECAN   C120651   0.984   3.569   9.219 -0.6798 -0.6834  0.0664
 2067DECAN   C220652   1.058   3.504   9.337  0.4762 -0.0659 -0.3024
 2067DECAN   C320653   1.146   3.385   9.294 -0.1303 -0.3886 -0.6610
 2067DECAN   C420654   1.223   3.324   9.413 -0.6075  0.3066  0.0100
 2067DECAN   C520655   1.301   3.434   9.488  0.0932 -0.1418 -0.0514
 2067DECAN   C620656   1.376   3.397   9.617  0.3413 -0.5590 -0.3146
 2067DECAN   C720657   1.488   3.491   9.663  0.2590 -0.6559  0.0833
 2067DECAN   C820658   1.562   3.447   9.791 -0.2627 -0.0164  0.6123
 2067DECAN   C920659   1.490   3.453   9.927 -0.0958  0.4986  0.6798
 2067DECAN  C1020660   1.544   3.369  10.044 -0.3178 -0.1153  0.3480
 2068DECAN   C120661   2.703  10.882  13.504 -0.1669  0.6534 -0.0348
 2068DECAN   C220662   2.772  10.927  13.634  0.0831 -0.5200  0.2455
 2068DECAN   C320663   2.916  10.970  13.604 -0.1064 -0.0395  0.0219
 2068DECAN   C420664   3.007  10.974  13.728  0.4115  0.4709 -0.3699
 2068DECAN   C520665   3.157  11.000  13.702  0.7533 -0.4869  0.5782
 2068DECAN   C620666   3.260  10.990  13.816  0.7767 -0.3933  0.5660
 2068DECAN   C720667   3.401  11.043  13.785  0.4707  0.0791 -0.0287
 2068DECAN   C820668   3.497  11.039  13.905  0.3869  0.2842  0.0452
 2068DECAN   C920669   3.552  10.896  13.923  0.2986  0.2094 -0.2771
 2068DECAN  C1020670   3.640  10.878  14.048 -0.3869  0.3710  0.2330
 2069DECAN   C120671   5.792   0.777   8.700 -0.1335  0.0544  0.6559
 2069DECAN   C220672   5.695   0.687   8.779 -0.8699  0.5271  0.3032
 2069DECAN   C320673   5.741   0.546   8.819 -0.5475  0.6910  0.5170
 2069DECAN   C420674   5.871   0.559   8.901  0.0342 -0.0096 -0.2754
 2069DECAN   C520675   5.920   0.422   8.950  0.3590  0.2166  0.0343
 2069DECAN   C620676   6.025   0.442   9.062  0.0612  0.2301  0.3120
 2069DECAN   C720677   5.970   0.538   9.169  0.2380  0.2397  0.3954
 2069DECAN   C820678   5.842   0.485   9.238  0.4649 -0.3781  0.3528
 2069DECAN   C920679   5.851   0.336   9.276 -0.1382 -0.5565 -0.1868
 2069DECAN  C1020680   5.746   0.294   9.380 -0.8370  0.3421 -0.5182
 2070DECAN   C120681   2.622   9.236  10.973  0.7884 -0.2461 -0.7125
 2070DECAN   C220682   2.599   9.356  10.879  0.2368  0.0539 -0.1988
 2070DECAN   C320683   2.451   9.378  10.842  0.2498  0.4874  0.0063
 2070DECAN   C420684   2.412   9.489  10.742 -0.3297  0.6871  0.4491
 2070DECAN   C520685   2.264   9.477  10.699 -0.1516  0.1794 -0.0278
 2070DECAN   C620686   2.192   9.605  10.653  0.0695  0.1940 -0.3374
 2070DECAN   C720687   2.146   9.702  10.763 -0.2564 -0.0311 -0.2762
 2070DECAN   C820688   2.077   9.829  10.708  0.5128  0.3505 -0.3765
 2070DECAN   C920689   1.971   9.811  10.597  0.0391  0.0092  0.1237
 2070DECAN  C1020690   2.041   9.749  10.474 -0.4791  0.0525 -0.1955
 2071DECAN   C120691   7.656   0.013  11.125  0.2460  0.4279  0.4819
 2071DECAN   C220692   7.644   0.081  11.263  0.1346  0.0035  0.6806
 2071DECAN   C320693   7.636   0.234  11.256  0.4489 -0.0088 -0.0322
 2071DECAN   C420694   7.574   0.307  11.377  0.4606  0.0638 -0.0692
 2071DECAN   C520695   7.646   0.278  11.510 -0.1791 -0.0114  0.2670
 2071DECAN   C620696   7.575   0.338  11.633 -0.7863  0.1350 -0.1512
 2071DECAN   C720697   7.620   0.285  11.770 -0.1033  0.1335 -0.3697
 2071DECAN   C820698   7.512   0.261  11.877  0.2257  0.7557  0.1124
 2071DECAN   C920699   7.571   0.241  12.018  0.7249  0.0667 -0.1887
 2071DECAN  C1020700   7.643   0.366  12.071  0.3593  0.1158  0.1934
 2072DECAN   C120701   4.007   2.325  10.060 -0.0845 -0.0622  0.0916
 2072DECAN   C220702   4.052   2.465  10.013  0.2562 -0.0202  0.5327
 2072DECAN   C320703   4.183   2.441   9.935 -0.0376 -0.2222  0.0977
 2072DECAN   C420704   4.164   2.334   9.825  0.3670 -0.4466  0.2435
 2072DECAN   C520705   4.282   2.318   9.729  0.4554 -0.3842  0.3414
 2072DECAN   C620706   4.256   2.225   9.609 -0.1646  0.3048 -0.0647
 2072DECAN   C720707   4.136   2.264   9.520 -0.3422  0.0274  0.0520
 2072DECAN   C820708   4.070   2.147   9.445 -0.0283 -0.4297  0.4802
 2072DECAN   C920709   3.927   2.167   9.392  0.2835 -0.2561 -0.3114
 2072DECAN  C1020710   3.924   2.270   9.278  0.0653  0.0043 -0.0715
 2073DECAN   C120711   9.989   8.059  14.216  0.0410  0.1331 -0.4184
 2073DECAN   C220712  10.097   8.168  14.203  0.2945 -0.0550  0.0790
 2073DECAN   C320713  10.031   8.304  14.233  0.2191 -0.0380 -0.1639
 2073DECAN   C420714   9.929   8.360  14.132 -0.2747  0.5344  0.6394
 2073DECAN   C520715   9.985   8.399  13.993  0.5262  0.1957  0.8586
 2073DECAN   C620716  10.069   8.294  13.918  0.0359  0.2906  0.1708
 2073DECAN   C720717  10.119   8.346  13.782 -0.1668  0.3365  0.1131
 2073DECAN   C820718  10.227   8.455  13.777  0.2475 -0.1009 -0.7922
 2073DECAN   C920719  10.365   8.387  13.771  0.1177 -0.4779  0.2257
 2073DECAN  C1020720  10.483   8.483  13.751 -0.2137 -0.0054  0.5342
 2074DECAN   C120721  10.408   5.102  14.409 -0.0829  0.2040  0.4550
 2074DECAN   C220722  10.347   5.206  14.313  0.5761  0.0721 -0.1066
 2074DECAN   C320723  10.324   5.145  14.173 -0.4408  0.1395  0.0272
 2074DECAN   C420724  10.206   5.048  14.157 -0.1691 -0.2730  0.4854
 2074DECAN   C520725  10.213   4.961  14.029 -0.0954 -0.1167  0.3832
 2074DECAN   C620726  10.340   4.876  14.018 -0.5610 -0.7656 -0.0352
 2074DECAN   C720727  10.471   4.957  14.008 -0.6878 -0.5729 -0.1193
 2074DECAN   C820728  10.601   4.882  14.042 -0.2568 -0.0643 -0.6160
 2074DECAN   C920729  10.611   4.737  13.990 -0.2370 -0.2103 -0.2097
 2074DECAN  C1020730  10.659   4.749  13.844  0.0027  0.0109 -0.1154
 2075DECAN   C120731   1.611  11.045  14.069 -0.0107 -0.1067  0.6145
 2075DECAN   C220732   1.764  11.038  14.087  0.0316 -0.6059  0.1102
 2075DECAN   C320733   1.815  11.104  13.958 -0.0313 -0.6615  0.0575
 2075DECAN   C420734   1.963  11.068  13.933  0.4052  0.6226  0.6992
 2075DECAN   C520735   2.002  11.042  13.786  0.1852  0.8894  0.5933
 2075DECAN   C620736   2.150  11.005  13.766 -0.2158 -0.4081 -0.0409
 2075DECAN   C720737   2.196  11.031  13.621  0.0531 -0.3085  0.0615
 2075DECAN   C820738   2.344  10.996  13.595 -0.0377 -0.3047 -0.4749
 2075DECAN   C920739   2.372  10.845  13.600  0.0053 -0.2969 -0.4660
 2075DECAN  C1020740   2.321  10.773  13.726 -0.3123 -0.1223 -0.4919
 2076DECAN   C120741   9.244   7.454   4.788 -0.3487  0.1093  0.1369
 2076DECAN   C220742   9.182   7.592   4.814 -0.9213 -0.1030 -0.0810
 2076DECAN   C320743   9.258   7.708   4.746 -0.0161 -0.7115 -0.1193
 2076DECAN   C420744   9.179   7.839   4.752  1.0374 -0.0551 -0.3260
 2076DECAN   C520745   9.232   7.962   4.676  0.6331  0.0919 -0.3755
 2076DECAN   C620746   9.157   8.094   4.703 -0.2764 -0.4852 -0.0403
 2076DECAN   C720747   9.173   8.147   4.847  0.2059 -0.4073 -0.1215
 2076DECAN   C820748   9.131   8.292   4.876 -0.0546 -0.3767 -0.6302
 2076DECAN   C920749   8.988   8.308   4.821 -0.0802 -0.2425 -0.5251
 2076DECAN  C1020750   8.936   8.452   4.810  0.0702 -0.1198  0.2398
 2077DECAN   C120751   4.625  10.328   8.605  0.3850  0.3440 -0.2300
 2077DECAN   C220752   4.547  10.338   8.737  0.0905 -0.0816 -0.3724
 2077DECAN   C320753   4.599  10.238   8.843  0.4267 -0.0439 -0.5036
 2077DECAN   C420754   4.550  10.286   8.980  0.3558  0.6520 -0.7675
 2077DECAN   C520755   4.605  10.429   9.000 -0.0772  0.7829 -0.4848
 2077DECAN   C620756   4.567  10.489   9.136  0.2305 -0.0227 -0.0335
 2077DECAN   C720757   4.611  10.395   9.250 -0.6076 -0.4994 -0.0919
 2077DECAN   C820758   4.552  10.422   9.389  0.0281  0.1189  0.0671
 2077DECAN   C920759   4.617  10.328   9.492 -0.0180  0.0363  0.0208
 2077DECAN  C1020760   4.583  10.352   9.641 -0.5407  0.0155 -0.0944
 2078DECAN   C120761   8.880   9.704  13.845  0.2467  0.1802  0.5363
 2078DECAN   C220762   8.901   9.796  13.967 -0.3619  0.8253  0.1611
 2078DECAN   C320763   8.782   9.816  14.062 -0.5131 -0.1265  0.1833
 2078DECAN   C420764   8.810   9.913  14.179 -0.4713  0.2026 -0.0974
 2078DECAN   C520765   8.682   9.946  14.258 -0.7627  0.1213 -0.5289
 2078DECAN   C620766   8.601  10.067  14.209 -0.1482  0.6229 -0.3287
 2078DECAN   C720767   8.470  10.105  14.282 -0.0840  0.4668 -0.1335
 2078DECAN   C820768   8.388  10.215  14.213  0.0880  0.6025 -0.1221
 2078DECAN   C920769   8.248  10.246  14.271  0.0970  0.0591  0.1976
 2078DECAN  C1020770   8.177  10.344  14.176  0.3862  0.0771 -0.0013
 2079DECAN   C120771   6.564   7.476  14.050  0.2461 -0.2277  0.4708
 2079DECAN   C220772   6.665   7.541  13.954 -0.4428  0.4213  0.1776
 2079DECAN   C320773   6.679   7.694  13.969 -0.0032  0.4066 -0.0485
 2079DECAN   C420774   6.551   7.773  13.935 -0.2464 -0.0533 -0.2148
 2079DECAN   C520775   6.540   7.913  13.999  0.0050 -0.0091 -0.2617
 2079DECAN   C620776   6.424   7.988  13.931 -0.1004  0.0583 -0.0107
 2079DECAN   C720777   6.390   8.135  13.961  0.3631  0.2593 -0.4390
 2079DECAN   C820778   6.275   8.194  13.877  0.3970  0.7143 -0.1718
 2079DECAN   C920779   6.283   8.165  13.726  0.4782  0.0017 -0.0338
 2079DECAN  C1020780   6.432   8.193  13.695  0.4172  0.8250  0.3877
 2080DECAN   C120781   3.902  11.140  11.912  0.4304 -0.3157  0.1758
 2080DECAN   C220782   4.000  11.073  12.009  0.3863 -0.4292  0.1421
 2080DECAN   C320783   3.967  11.117  12.153  0.3039 -0.0657  0.0139
 2080DECAN   C420784   4.022  11.026  12.265  0.6604  0.2449  0.0946
 2080DECAN   C520785   4.170  11.050  12.300  0.7602  0.0398 -0.1766
 2080DECAN   C620786   4.265  10.996  12.191  0.0426 -0.2751 -0.6512
 2080DECAN   C720787   4.411  10.988  12.237 -0.2263 -0.0845  0.2568
 2080DECAN   C820788   4.517  10.952  12.131  0.2667  0.1921  0.6481
 2080DECAN   C920789   4.648  10.886  12.177  0.1304 -0.4604  0.1174
 2080DECAN  C1020790   4.732  10.846  12.054  0.2956  0.3759 -0.0492
 2081DECAN   C120791   5.912   5.775  12.800  0.1958 -0.1619  0.6380
 2081DECAN   C220792   5.811   5.817  12.908  0.1611  0.0934  0.5064
 2081DECAN   C320793   5.666   5.829  12.856  0.5339 -0.1013 -0.6045
 2081DECAN   C420794   5.573   5.861  12.974  0.6496  0.6846 -0.7178
 2081DECAN   C520795   5.424   5.849  12.936  0.5595 -0.0114 -0.1717
 2081DECAN   C620796   5.338   5.929  13.035  0.4670 -0.0835 -0.1937
 2081DECAN   C720797   5.185   5.936  13.014  0.4304 -0.0671  0.0867
 2081DECAN   C820798   5.130   6.014  12.894 -0.2679 -0.4187  0.1721
 2081DECAN   C920799   4.987   5.979  12.848 -0.4921  0.6493  0.0371
 2081DECAN  C1020800   4.972   5.991  12.695 -0.3356  0.0480 -0.0294
 2082DECAN   C120801   3.312   5.826  14.051 -0.7482 -0.1939 -0.0644
 2082DECAN   C220802   3.385   5.691  14.050  0.1683  0.2955 -0.3627
 2082DECAN   C320803   3.468   5.644  14.171 -0.1480  1.0279  0.1425
 2082DECAN   C420804   3.592   5.735  14.183  0.2975  0.5074 -0.4441
 2082DECAN   C520805   3.686   5.701  14.301  0.2027 -0.0010 -0.5119
 2082DECAN   C620806   3.594   5.663  14.419  0.5278  0.2955 -0.1633
 2082DECAN   C720807   3.678   5.601  14.533  0.1861 -0.5788 -0.3847
 2082DECAN   C820808   3.597   5.542  14.650 -0.0910 -0.2787 -0.4233
 2082DECAN   C920809   3.538   5.405  14.611 -0.4891 -0.2368  0.0331
 2082DECAN  C1020810   3.439   5.345  14.713 -0.0389 -0.5524  0.2895
 2083DECAN   C120811   8.186  10.201  10.321  0.2062  0.3486 -0.1131
 2083DECAN   C220812   8.300  10.261  10.237 -0.2489  0.0283 -0.9738
 2083DECAN   C320813   8.436  10.190  10.243 -0.5222 -0.4788 -0.6805
 2083DECAN   C420814   8.533  10.238  10.134  0.1317 -0.5993 -0.1618
 2083DECAN   C520815   8.666  10.162  10.150  0.2571 -0.4163 -0.3253
 2083DECAN   C620816   8.783  10.195  10.055  0.4244 -0.2946 -0.0770
 2083DECAN   C720817   8.749  10.166   9.908 -0.6230 -0.1617  0.1298
 2083DECAN   C820818   8.870  10.133   9.818 -0.7629 -0.1691 -0.0556
 2083DECAN   C920819   8.968  10.022   9.859 -0.0905  0.3049 -0.3655
 2083DECAN  C1020820   8.898   9.896   9.911  0.8105 -0.1003 -0.1118
 2084DECAN   C120821   2.560   9.930   6.584 -0.3020  0.0029  0.2004
 2084DECAN   C220822   2.520   9.897   6.729 -0.5837 -0.0459  0.1118
 2084DECAN   C320823   2.450   9.760   6.744 -1.0206  0.1324 -0.2495
 2084DECAN   C420824   2.383   9.723   6.878 -0.5117  0.1641  0.0168
 2084DECAN   C520825   2.469   9.733   7.006 -0.4558  0.2063 -0.0235
 2084DECAN   C620826   2.387   9.676   7.123  0.2040  0.1830  0.4285
 2084DECAN   C720827   2.471   9.655   7.251  0.4970  0.0324  0.2140
 2084DECAN   C820828   2.375   9.614   7.365  0.3377  0.4435  0.2314
 2084DECAN   C920829   2.459   9.538   7.469  0.1207  0.0933  0.1530
 2084DECAN  C1020830   2.383   9.525   7.602 -0.5601  0.5035 -0.1905
 2085DECAN   C120831   8.618   8.799   7.844 -0.3474 -0.2016 -0.1730
 2085DECAN   C220832   8.656   8.658   7.797  0.6465 -0.0805  0.2574
 2085DECAN   C320833   8.726   8.575   7.907  0.5385 -0.2433  0.2022
 2085DECAN   C420834   8.739   8.426   7.871  0.2169 -0.2189 -0.0237
 2085DECAN   C520835   8.802   8.332   7.976 -0.2245 -0.3521  0.1226
 2085DECAN   C620836   8.850   8.196   7.925  0.8895  0.1456 -0.1871
 2085DECAN   C720837   8.733   8.102   7.889  0.5588  0.7123 -0.5944
 2085DECAN   C820838   8.775   7.974   7.815  0.1074  0.0506  0.2850
 2085DECAN   C920839   8.815   8.012   7.672  0.3608  0.0709  0.3607
 2085DECAN  C1020840   8.845   7.885   7.591  0.5270  0.0853  0.3969
 2086DECAN   C120841   4.493   8.915   6.517  0.1182 -0.1243 -0.3410
 2086DECAN   C220842   4.436   8.782   6.464  0.2835 -0.4222  0.2247
 2086DECAN   C320843   4.352   8.715   6.574 -0.6710  0.4710  0.0571
 2086DECAN   C420844   4.414   8.708   6.715 -0.0850  0.3199 -0.2073
 2086DECAN   C520845   4.392   8.837   6.797  0.2480  0.3467 -0.1602
 2086DECAN   C620846   4.458   8.840   6.936  0.4239  0.0093 -0.2347
 2086DECAN   C720847   4.420   8.971   7.008 -0.2928 -0.4102  0.1694
 2086DECAN   C820848   4.493   9.005   7.139  0.1464 -0.5600 -0.0339
 2086DECAN   C920849   4.409   9.087   7.238  0.1195 -0.2730 -0.2940
 2086DECAN  C1020850   4.501   9.190   7.306 -0.7300  0.5047 -0.2938
 2087DECAN   C120851   3.581   0.328  14.446  0.4968 -0.2638 -0.0191
 2087DECAN   C220852   3.561   0.195  14.522  0.1198 -0.2310 -0.0598
 2087DECAN   C320853   3.544   0.077  14.425  0.4429 -0.1728 -0.1904
 2087DECAN   C420854   3.477  11.203  14.498 -0.5106  0.3327 -0.2217
 2087DECAN   C520855   3.453  11.075  14.416 -0.3255 -0.2295  0.5864
 2087DECAN   C620856   3.391  10.956  14.493 -0.3656 -0.2257  0.5607
 2087DECAN   C720857   3.351  10.846  14.394  0.0709  0.5644 -0.5146
 2087DECAN   C820858   3.293  10.722  14.464  0.1249  0.4998 -0.5845
 2087DECAN   C920859   3.244  10.607  14.373  0.9660 -0.0553 -0.3500
 2087DECAN  C1020860   3.227  10.481  14.461  0.4054  0.1957 -0.0874
 2088DECAN   C120861   7.154   4.879   7.594  0.8828 -0.5707 -0.0471
 2088DECAN   C220862   7.221   4.939   7.468  0.3397  0.0562 -0.0415
 2088DECAN   C320863   7.149   5.067   7.420  0.3593  0.1553  0.1902
 2088DECAN   C420864   7.161   5.110   7.273 -0.5830 -0.0753  0.0381
 2088DECAN   C520865   7.057   5.221   7.253 -0.6928 -0.1902 -0.0298
 2088DECAN   C620866   7.076   5.350   7.335 -0.6832 -0.3314  0.1897
 2088DECAN   C720867   6.995   5.474   7.291 -0.3926 -0.1407  0.1930
 2088DECAN   C820868   7.021   5.589   7.390  0.4072  0.2720 -0.4805
 2088DECAN   C920869   6.934   5.715   7.376 -0.0741 -0.0162 -0.1466
 2088DECAN  C1020870   6.993   5.830   7.460  0.0515 -0.5434  0.4878
 2089DECAN   C120871   3.528   4.042   9.162 -0.3503 -0.1505  0.3953
 2089DECAN   C220872   3.562   3.953   9.041 -0.2461  0.2557  0.1222
 2089DECAN   C320873   3.438   3.871   8.998 -0.1505 -0.0467  0.4233
 2089DECAN   C420874   3.472   3.751   8.907  0.0406 -0.2161  0.7139
 2089DECAN   C520875   3.364   3.646   8.876 -0.3496  0.5698 -0.7049
 2089DECAN   C620876   3.232   3.678   8.805 -0.8455 -0.2683 -0.1883
 2089DECAN   C720877   3.146   3.558   8.762 -0.3044 -0.7833  0.1594
 2089DECAN   C820878   3.016   3.603   8.691  0.0082 -0.2946 -0.1089
 2089DECAN   C920879   2.887   3.548   8.755  0.1146  0.1516  0.5034
 2089DECAN  C1020880   2.757   3.600   8.690  0.5265  0.9411  0.2947
 2090DECAN   C120881   5.358   9.251   8.202  0.3192 -0.0758  0.0918
 2090DECAN   C220882   5.466   9.220   8.096  0.1898  0.3442 -0.1649
 2090DECAN   C320883   5.571   9.114   8.135 -0.2812  0.0169  0.2224
 2090DECAN   C420884   5.548   8.968   8.092  0.1785 -0.0535  0.2163
 2090DECAN   C520885   5.646   8.864   8.150  0.5221 -0.2625 -0.7251
 2090DECAN   C620886   5.614   8.715   8.128  0.0231 -0.2714  0.0158
 2090DECAN   C720887   5.730   8.619   8.161 -0.1817 -0.5829 -0.1650
 2090DECAN   C820888   5.747   8.601   8.313 -0.0773 -0.1735 -0.1291
 2090DECAN   C920889   5.623   8.541   8.382 -0.0530 -0.3137 -0.2082
 2090DECAN  C1020890   5.653   8.533   8.533 -0.4486 -0.0125 -0.1113
 2091DECAN   C120891   7.619   9.414   8.163  0.1058  0.5340  0.2848
 2091DECAN   C220892   7.556   9.427   8.023  0.0076 -0.6210  0.2086
 2091DECAN   C320893   7.442   9.327   7.997  0.0770 -0.6233 -0.0899
 2091DECAN   C420894   7.364   9.365   7.870 -0.2093 -0.4966  0.1242
 2091DECAN   C520895   7.255   9.262   7.835 -0.5767  0.0250 -0.2749
 2091DECAN   C620896   7.165   9.296   7.714 -0.6825 -0.4410 -0.3283
 2091DECAN   C720897   7.081   9.422   7.741 -0.1483 -0.0144 -0.6338
 2091DECAN   C820898   6.972   9.457   7.637 -0.0217  0.2668 -0.6707
 2091DECAN   C920899   6.896   9.587   7.670  0.0478 -0.1272  1.1658
 2091DECAN  C1020900   6.791   9.638   7.570  0.7617 -0.5030  0.2096
 2092DECAN   C120901   1.914   3.956  12.969 -0.0715  0.1902  0.5410
 2092DECAN   C220902   2.009   3.901  12.862  0.0869  1.1195  0.1949
 2092DECAN   C320903   1.989   3.962  12.722  0.1125 -0.0763 -0.3403
 2092DECAN   C420904   1.869   3.896  12.651 -0.0159  0.0219 -0.2159
 2092DECAN   C520905   1.789   3.991  12.560 -0.2322  0.2231  0.1853
 2092DECAN   C620906   1.891   4.042  12.457 -0.2518  0.2468  0.1782
 2092DECAN   C720907   1.824   4.111  12.337  0.1111 -0.1478 -0.2558
 2092DECAN   C820908   1.941   4.154  12.246  0.2420  0.2746  0.1075
 2092DECAN   C920909   2.035   4.041  12.202  0.2097  0.2274  0.1593
 2092DECAN  C1020910   2.152   4.078  12.110 -0.0225  0.0303 -0.2181
 2093DECAN   C120911   6.671   6.306  15.103 -0.1253 -0.5744  0.3411
 2093DECAN   C220912   6.812   6.243  15.114  0.0504 -0.2823 -0.1973
 2093DECAN   C320913   6.929   6.342  15.107 -0.1554 -0.0364 -0.1752
 2093DECAN   C420914   7.068   6.278  15.090 -0.0547  0.2230 -0.3272
 2093DECAN   C520915   7.195   6.358  15.128  0.1444 -0.1250 -0.2546
 2093DECAN   C620916   7.317   6.265  15.129  0.1629 -0.1056 -0.6700
 2093DECAN   C720917   7.306   6.170  15.008 -0.2402 -0.2248 -0.5412
 2093DECAN   C820918   7.421   6.077  14.963  0.0957  0.0995 -0.3620
 2093DECAN   C920919   7.387   5.969  14.859 -0.5566  0.4656 -0.5359
 2093DECAN  C1020920   7.508   5.885  14.814 -0.0232  0.9010  0.0661
 2094DECAN   C120921   8.484   7.035   5.813 -0.4192 -0.1652 -0.4396
 2094DECAN   C220922   8.393   7.155   5.778 -0.2294  0.1057 -0.0083
 2094DECAN   C320923   8.269   7.152   5.869 -0.1010  0.1433  0.1705
 2094DECAN   C420924   8.303   7.124   6.016  0.0617 -0.0424  0.0982
 2094DECAN   C520925   8.192   7.067   6.106 -0.1033  0.1802  0.0375
 2094DECAN   C620926   8.168   6.917   6.083  0.5749  0.0580  0.1121
 2094DECAN   C720927   8.055   6.868   6.176 -0.1977  0.1719 -0.7508
 2094DECAN   C820928   8.026   6.726   6.122 -0.4804  0.2290 -0.7471
 2094DECAN   C920929   7.925   6.655   6.214 -0.0165 -0.0207 -0.4277
 2094DECAN  C1020930   7.833   6.560   6.135  0.0894 -0.6374  0.1851
 2095DECAN   C120931   9.360   3.659  13.445  0.0673 -0.0395 -0.2703
 2095DECAN   C220932   9.291   3.534  13.502  0.2887 -0.0590 -0.0455
 2095DECAN   C320933   9.378   3.444  13.593  0.7307  0.4681  0.0615
 2095DECAN   C420934   9.462   3.337  13.521  0.0700  0.3568 -0.5592
 2095DECAN   C520935   9.586   3.383  13.443  0.4752  0.1187 -0.0559
 2095DECAN   C620936   9.702   3.419  13.538  0.5677 -0.4657  0.0628
 2095DECAN   C720937   9.835   3.423  13.460  0.5028  0.3332 -0.0148
 2095DECAN   C820938   9.868   3.281  13.413  0.3772  0.2703  0.0883
 2095DECAN   C920939   9.998   3.273  13.330  0.1295 -0.5847 -0.2367
 2095DECAN  C1020940  10.021   3.150  13.240  1.0477 -0.5321 -0.0811
 2096DECAN   C120941  11.094   7.904  11.318 -0.0402 -0.1535 -0.3712
 2096DECAN   C220942  11.110   8.057  11.331  0.0489 -0.1854 -0.0847
 2096DECAN   C320943  11.060   8.120  11.199 -0.0067 -0.2344 -0.0877
 2096DECAN   C420944  11.128   8.256  11.173 -0.6236  0.2609  0.8322
 2096DECAN   C520945  11.096   8.321  11.037  0.3799 -0.4986  0.2182
 2096DECAN   C620946  11.141   8.468  11.030  0.5309 -0.5542  0.0250
 2096DECAN   C720947  11.112   8.538  10.896  0.8053 -0.0754  0.2119
 2096DECAN   C820948  11.114   8.691  10.905 -0.1655 -0.0299 -0.1792
 2096DECAN   C920949  11.025   8.774  11.000  0.1507  0.0317  0.0668
 2096DECAN  C1020950  11.067   8.917  11.039  0.4202 -0.0665  0.1337
 2097DECAN   C120951   8.385   6.740  14.102 -0.1533 -0.0108 -0.3930
 2097DECAN   C220952   8.450   6.672  14.225 -0.9488  0.1503  0.1217
 2097DECAN   C320953   8.520   6.771  14.319 -0.6613  0.1813 -0.1262
 2097DECAN   C420954   8.546   6.710  14.458 -0.0284  0.2437 -0.2114
 2097DECAN   C520955   8.589   6.817  14.561 -0.4374  0.1694  0.0386
 2097DECAN   C620956   8.737   6.854  14.539 -0.3684  0.1102  0.3993
 2097DECAN   C720957   8.798   6.984  14.595  0.3071  0.1672 -0.4501
 2097DECAN   C820958   8.760   7.116  14.525 -0.4430  0.2469  0.0894
 2097DECAN   C920959   8.815   7.237  14.601 -0.1214  0.0102  0.2338
 2097DECAN  C1020960   8.766   7.370  14.542 -0.2771 -0.1372  0.0338
 2098DECAN   C120961   8.724   7.576  11.122 -0.1393 -0.6005 -0.2041
 2098DECAN   C220962   8.807   7.627  11.242 -0.3126 -0.5535 -0.1034
 2098DECAN   C320963   8.836   7.525  11.354 -0.7205  0.0207  0.5300
 2098DECAN   C420964   8.930   7.591  11.457 -0.2613 -0.4714  0.4295
 2098DECAN   C520965   9.016   7.494  11.541  0.4218  0.1603  0.4631
 2098DECAN   C620966   9.112   7.424  11.443  0.1113  0.2956  0.0628
 2098DECAN   C720967   9.052   7.378  11.309 -0.2168  0.2256  0.2328
 2098DECAN   C820968   9.142   7.264  11.257 -1.0752 -0.6455  0.6344
 2098DECAN   C920969   9.080   7.202  11.131 -0.4650  0.1306 -0.0516
 2098DECAN  C1020970   9.016   7.312  11.043 -0.4313  0.1634 -0.0348
 2099DECAN   C120971   7.989   5.137   5.285  0.4897 -0.8843  0.5235
 2099DECAN   C220972   8.088   5.163   5.170 -0.0652 -0.3825  0.1501
 2099DECAN   C320973   8.032   5.180   5.028 -0.1152 -0.2946  0.1809
 2099DECAN   C420974   8.115   5.212   4.902  0.0659 -0.3886  0.2758
 2099DECAN   C520975   8.017   5.214   4.783 -0.2117  0.5653  0.5122
 2099DECAN   C620976   7.969   5.071   4.751  0.1135  0.4761  0.4171
 2099DECAN   C720977   7.862   5.066   4.640  0.6151 -0.2560 -0.0414
 2099DECAN   C820978   7.822   4.924   4.595 -0.2344 -0.2038  0.5141
 2099DECAN   C920979   7.706   4.922   4.493  0.0418 -0.0276  0.1918
 2099DECAN  C1020980   7.581   4.996   4.544 -0.1684 -0.3240  0.1050
 2100DECAN   C120981   3.651   1.502   8.756 -0.2771  0.6189  0.2219
 2100DECAN   C220982   3.533   1.461   8.665 -0.0490  0.2945  0.0710
 2100DECAN   C320983   3.509   1.311   8.643  0.1965  0.2819 -0.1243
 2100DECAN   C420984   3.384   1.270   8.561  0.0730  0.4403 -0.0155
 2100DECAN   C520985   3.251   1.322   8.617  0.1423  0.1151  0.4643
 2100DECAN   C620986   3.210   1.246   8.744  0.1578 -0.2433  0.2562
 2100DECAN   C720987   3.110   1.130   8.729  0.1392 -0.1363 -0.4855
 2100DECAN   C820988   3.076   1.044   8.853 -0.1442  0.1813 -0.3408
 2100DECAN   C920989   2.985   0.923   8.825 -0.1699  0.1535 -0.1356
 2100DECAN  C1020990   2.961   0.825   8.941 -0.4053  0.1439 -0.1912
 2101DECAN   C120991  10.804   1.140   7.406  0.1144 -0.3947  0.3357
 2101DECAN   C220992  10.903   1.029   7.369  0.6132  0.1209  0.1020
 2101DECAN   C320993  10.845   0.889   7.400 -0.0871  0.3239 -0.2673
 2101DECAN   C420994  10.939   0.780   7.345  0.1294  0.2825  0.1823
 2101DECAN   C520995  10.864   0.659   7.287  0.3400  0.0210  0.4509
 2101DECAN   C620996  10.823   0.554   7.392  0.0049 -0.5357 -0.2239
 2101DECAN   C720997  10.730   0.442   7.342 -0.6025 -0.0872 -0.1147
 2101DECAN   C820998  10.694   0.342   7.453  0.2762  0.1126  0.3640
 2101DECAN   C920999  10.708   0.396   7.597 -0.0152  0.3508  0.3058
 2101DECAN  C1021000  10.617   0.516   7.627 -0.4124  0.1512 -0.0932
 2102DECAN   C121001   2.650   6.424  14.078 -0.5751 -0.0554 -0.4079
 2102DECAN   C221002   2.764   6.417  14.182 -0.1541  0.2426 -0.8437
 2102DECAN   C321003   2.876   6.519  14.154  0.0720  0.1536 -0.2739
 2102DECAN   C421004   2.991   6.511  14.256 -0.0660 -0.0738 -0.1346
 2102DECAN   C521005   3.083   6.634  14.241 -0.7226  0.4707  0.2576
 2102DECAN   C621006   3.186   6.657  14.353  0.0033  0.1839 -0.3475
 2102DECAN   C721007   3.251   6.796  14.360  0.0021  0.1562  0.2034
 2102DECAN   C821008   3.345   6.799  14.483  0.1374 -0.0580  0.1044
 2102DECAN   C921009   3.473   6.714  14.472  0.2984  0.1719  0.2140
 2102DECAN  C1021010   3.587   6.754  14.568 -0.1859  0.6971  0.5785
 2103DECAN   C121011   3.743   6.423  11.112 -0.4673  0.1127 -0.4702
 2103DECAN   C221012   3.799   6.563  11.144 -0.4556 -0.0144  0.0650
 2103DECAN   C321013   3.906   6.570  11.254 -0.3504  0.2549 -0.0565
 2103DECAN   C421014   3.926   6.703  11.328 -0.3600 -0.1524  0.6869
 2103DECAN   C521015   3.998   6.809  11.242 -0.4975 -0.5951  0.0228
 2103DECAN   C621016   4.149   6.801  11.214 -0.4002  0.0131  0.3511
 2103DECAN   C721017   4.224   6.926  11.163 -0.2701 -0.1213  0.2119
 2103DECAN   C821018   4.204   7.040  11.264 -0.6092  0.1838 -0.1985
 2103DECAN   C921019   4.263   7.175  11.219 -0.4938  0.1518 -0.1435
 2103DECAN  C1021020   4.278   7.294  11.316  0.3135 -0.1389  0.0919
 2104DECAN   C121021   9.643   5.584   4.991  0.2914 -0.0513  0.1117
 2104DECAN   C221022   9.709   5.625   5.124  0.4425 -0.1069  0.0551
 2104DECAN   C321023   9.730   5.504   5.216 -0.4665 -0.1129  0.2676
 2104DECAN   C421024   9.774   5.548   5.357 -0.1949  0.4527  0.0090
 2104DECAN   C521025   9.735   5.439   5.459 -0.2897  0.4689 -0.0098
 2104DECAN   C621026   9.763   5.459   5.609 -0.1675  0.1646  0.0078
 2104DECAN   C721027   9.693   5.362   5.705  0.0715  0.2722  0.2926
 2104DECAN   C821028   9.685   5.219   5.649 -0.2786  0.0607  0.8741
 2104DECAN   C921029   9.589   5.130   5.730 -0.5627  0.1039  0.5858
 2104DECAN  C1021030   9.647   5.102   5.870  0.5286 -0.1958  0.0822
 2105DECAN   C121031   9.087   2.705   8.350 -0.0927 -0.0612 -0.0360
 2105DECAN   C221032   9.006   2.825   8.297 -0.1565 -0.0318  0.1289
 2105DECAN   C321033   9.079   2.902   8.185  0.1756 -0.1069  0.2915
 2105DECAN   C421034   9.000   3.032   8.159 -0.3094 -0.6288 -0.9056
 2105DECAN   C521035   9.066   3.140   8.071 -0.1098 -0.0376 -0.0412
 2105DECAN   C621036   8.966   3.250   8.031 -0.2128  0.0892  0.5470
 2105DECAN   C721037   9.046   3.374   7.987  0.3953 -0.3408  0.4154
 2105DECAN   C821038   8.964   3.502   7.960  0.1291 -0.4490  0.7127
 2105DECAN   C921039   8.895   3.557   8.087 -0.6451 -0.3610  0.2630
 2105DECAN  C1021040   8.821   3.690   8.067  0.3050  0.1636  0.1606
 2106DECAN   C121041  10.317   1.974   6.058  0.4797 -0.1418 -0.5500
 2106DECAN   C221042  10.296   1.822   6.079 -0.5273  0.0584 -0.0258
 2106DECAN   C321043  10.325   1.751   5.946  0.2177  0.0041  0.1571
 2106DECAN   C421044  10.305   1.599   5.964  0.0479  0.0284  0.1774
 2106DECAN   C521045  10.165   1.551   6.009 -0.2327  0.1470 -0.5657
 2106DECAN   C621046  10.163   1.426   6.099  0.2439  0.3934 -0.2088
 2106DECAN   C721047  10.028   1.397   6.168  0.2588  0.0571 -0.3232
 2106DECAN   C821048  10.037   1.249   6.212 -0.8609 -0.0536 -0.4470
 2106DECAN   C921049   9.916   1.201   6.295 -0.2956  0.1679  0.5222
 2106DECAN  C1021050   9.931   1.056   6.343  0.2617  0.2342  0.5609
 2107DECAN   C121051   6.292   2.264  12.181  0.9565  0.5368  0.0213
 2107DECAN   C221052   6.243   2.350  12.298  0.3054 -0.1014  0.2238
 2107DECAN   C321053   6.359   2.437  12.352  0.1700 -0.2198  0.7129
 2107DECAN   C421054   6.321   2.549  12.451  0.3910  0.2907  0.2244
 2107DECAN   C521055   6.446   2.622  12.503  0.2043 -0.0455  1.1478
 2107DECAN   C621056   6.532   2.689  12.395 -0.2538 -0.7101  0.3589
 2107DECAN   C721057   6.671   2.728  12.447 -0.3798  0.6105 -0.2579
 2107DECAN   C821058   6.782   2.714  12.342 -0.1867  0.0690  0.0164
 2107DECAN   C921059   6.794   2.833  12.245  0.3194  0.0931  0.1028
 2107DECAN  C1021060   6.933   2.866  12.188  0.1397 -0.1002 -0.4613
 2108DECAN   C121061   7.471   3.162   3.789  0.7997  0.1698 -0.1661
 2108DECAN   C221062   7.464   3.302   3.727 -0.2542  0.1876 -0.0280
 2108DECAN   C321063   7.468   3.419   3.827 -0.3979  0.2704 -0.1191
 2108DECAN   C421064   7.332   3.450   3.892 -0.0736  0.3121  0.5415
 2108DECAN   C521065   7.286   3.350   4.000  0.3035 -0.4951 -0.0370
 2108DECAN   C621066   7.163   3.404   4.074  0.1454  0.0480 -0.6920
 2108DECAN   C721067   7.045   3.462   3.993 -0.0199  0.5260 -0.1205
 2108DECAN   C821068   6.948   3.544   4.079 -0.0498  0.1515  0.2047
 2108DECAN   C921069   6.842   3.627   4.004 -0.1327 -0.1264  0.0138
 2108DECAN  C1021070   6.777   3.555   3.884  0.3606 -0.4466 -0.0655
 2109DECAN   C121071  10.376  10.687   7.728 -0.3095  0.0358  0.1533
 2109DECAN   C221072  10.432  10.805   7.809  0.3146  0.2126 -0.5274
 2109DECAN   C321073  10.536  10.769   7.916 -0.2254 -0.1349 -0.1173
 2109DECAN   C421074  10.635  10.658   7.876 -0.0160  0.0895 -0.2225
 2109DECAN   C521075  10.574  10.523   7.835 -0.6119  0.2407  0.1607
 2109DECAN   C621076  10.668  10.418   7.773 -0.5447  0.2791  0.1965
 2109DECAN   C721077  10.726  10.458   7.636  0.2249  0.6254  0.6176
 2109DECAN   C821078  10.847  10.374   7.591 -0.1427  0.1311  0.5421
 2109DECAN   C921079  10.861  10.357   7.439  0.3690  0.3095  0.5669
 2109DECAN  C1021080  10.882  10.492   7.369  0.1582 -0.0345 -0.1719
 2110DECAN   C121081   5.440   7.797   9.147 -0.0186 -0.3538 -0.3485
 2110DECAN   C221082   5.414   7.777   8.997  0.5675 -0.4045 -0.4471
 2110DECAN   C321083   5.282   7.826   8.935  0.1544 -0.7316  0.1587
 2110DECAN   C421084   5.257   7.773   8.792  0.4165  0.0104 -0.1688
 2110DECAN   C521085   5.207   7.628   8.793 -0.0919  0.1801  0.5550
 2110DECAN   C621086   5.312   7.526   8.841 -0.2464  0.0148  0.5418
 2110DECAN   C721087   5.268   7.381   8.812  0.1525 -0.0500  0.2466
 2110DECAN   C821088   5.235   7.358   8.664 -0.7945  0.2770  0.4055
 2110DECAN   C921089   5.218   7.208   8.636  0.2134  0.1985  0.2014
 2110DECAN  C1021090   5.144   7.174   8.506 -0.2816  0.0570  0.5188
 2111DECAN   C121091   5.799   6.668  12.726 -0.3130  0.3761 -0.0641
 2111DECAN   C221092   5.797   6.794  12.813 -0.5117  0.5301 -0.2898
 2111DECAN   C321093   5.940   6.835  12.855 -0.2920 -0.5050 -0.0190
 2111DECAN   C421094   6.011   6.715  12.921 -0.0169 -0.5789 -0.4467
 2111DECAN   C521095   6.165   6.712  12.914  0.0177 -0.3389  0.1507
 2111DECAN   C621096   6.210   6.591  12.997  0.1479 -0.1467  0.3585
 2111DECAN   C721097   6.363   6.586  13.020  0.1322  0.2665  0.5641
 2111DECAN   C821098   6.410   6.465  13.103  0.6446  0.1217  0.0673
 2111DECAN   C921099   6.559   6.429  13.094  0.5427 -0.2787 -0.0235
 2111DECAN  C1021100   6.609   6.335  13.205 -0.0181  0.1667  0.6060
 2112DECAN   C121101   6.364   5.892   6.318  1.0124 -0.2251  0.5888
 2112DECAN   C221102   6.331   5.800   6.436 -0.5724 -0.1579  0.2314
 2112DECAN   C321103   6.187   5.807   6.488 -0.3824 -0.3192  0.7904
 2112DECAN   C421104   6.145   5.948   6.533 -0.3499 -0.1089  0.1656
 2112DECAN   C521105   6.005   5.950   6.598 -0.2975  0.4449  0.2707
 2112DECAN   C621106   5.993   6.030   6.728  0.1471  0.6797  0.1696
 2112DECAN   C721107   5.882   5.973   6.819  0.0995 -0.3931 -0.5502
 2112DECAN   C821108   5.747   5.933   6.757 -0.1865  0.0057 -0.1861
 2112DECAN   C921109   5.667   5.850   6.861  0.2935 -0.4780 -0.1987
 2112DECAN  C1021110   5.549   5.761   6.818  0.3774 -0.5480 -0.2844
 2113DECAN   C121111   5.230   7.751  14.444 -0.5642 -0.3873 -0.0531
 2113DECAN   C221112   5.137   7.743  14.566 -1.0415  0.0007 -0.3884
 2113DECAN   C321113   5.127   7.885  14.623 -0.2747 -0.2861  0.4875
 2113DECAN   C421114   5.041   7.885  14.751 -0.1203  0.1604  0.5938
 2113DECAN   C521115   4.887   7.881  14.737 -0.0939  0.2311  0.2746
 2113DECAN   C621116   4.826   7.752  14.678  0.2806 -0.1354  0.6817
 2113DECAN   C721117   4.675   7.742  14.708  0.1287 -0.3492 -0.1422
 2113DECAN   C821118   4.608   7.609  14.668 -0.1896 -0.2012 -0.0934
 2113DECAN   C921119   4.461   7.596  14.713 -0.2650 -0.2064 -0.3428
 2113DECAN  C1021120   4.392   7.495  14.620  0.1054 -0.4551 -0.3480
 2114DECAN   C121121   6.757   0.027   6.623  0.4554 -0.5335  0.6712
 2114DECAN   C221122   6.823   0.164   6.598 -0.6124 -0.1991 -0.4516
 2114DECAN   C321123   6.851   0.246   6.726  0.0252 -0.2556 -0.5507
 2114DECAN   C421124   6.873   0.396   6.700 -0.0882  0.0051  0.8096
 2114DECAN   C521125   6.915   0.459   6.835 -0.4411  0.6611  0.6176
 2114DECAN   C621126   6.932   0.612   6.833  0.2693  0.5827 -0.2108
 2114DECAN   C721127   6.938   0.679   6.971 -0.8325  0.0730  0.0970
 2114DECAN   C821128   7.003   0.818   6.961  0.1155 -0.3743 -0.1008
 2114DECAN   C921129   7.120   0.817   6.861 -0.3953  0.4280 -0.7193
 2114DECAN  C1021130   7.199   0.950   6.865 -0.0395  0.1938  0.1015
 2115DECAN   C121131   4.883   8.761  12.986 -0.0391  0.0586 -0.3995
 2115DECAN   C221132   4.900   8.715  13.132 -0.5771  0.3940 -0.2304
 2115DECAN   C321133   5.016   8.799  13.187 -0.4020 -0.3117  0.5004
 2115DECAN   C421134   5.001   8.816  13.339 -0.6788  0.2265  0.4180
 2115DECAN   C521135   5.083   8.932  13.397  0.1153 -0.1636  0.0914
 2115DECAN   C621136   5.230   8.930  13.351 -0.1027 -0.1206 -0.6203
 2115DECAN   C721137   5.296   9.069  13.361 -0.3439 -0.0595  0.1841
 2115DECAN   C821138   5.447   9.081  13.335 -0.4673  0.6142 -0.2316
 2115DECAN   C921139   5.500   9.224  13.315  0.0781  0.4877  0.2915
 2115DECAN  C1021140   5.654   9.231  13.309  0.0636  0.7534  0.2397
 2116DECAN   C121141   6.027   1.794   8.588  0.3223 -0.2769  0.4956
 2116DECAN   C221142   5.909   1.696   8.580  0.1888 -0.0548 -0.3424
 2116DECAN   C321143   5.773   1.769   8.578  0.2442  0.0787  0.3301
 2116DECAN   C421144   5.735   1.831   8.713  0.1238  0.8042 -0.0315
 2116DECAN   C521145   5.596   1.896   8.706 -0.0439  0.4076 -0.4582
 2116DECAN   C621146   5.563   1.999   8.816 -0.1518 -0.4084  0.2826
 2116DECAN   C721147   5.424   2.066   8.811  0.2807  0.4492 -0.3988
 2116DECAN   C821148   5.385   2.144   8.938  0.0802 -0.5705  0.1732
 2116DECAN   C921149   5.256   2.227   8.927  0.1537 -0.4340  0.3370
 2116DECAN  C1021150   5.122   2.158   8.899  0.0673 -0.1286 -0.0102
 2117DECAN   C121151   8.636   2.300   6.070 -0.4170 -0.1064 -0.5044
 2117DECAN   C221152   8.683   2.395   5.958  0.1555  0.3109  0.0796
 2117DECAN   C321153   8.831   2.391   5.918 -0.0066 -0.1445 -0.4845
 2117DECAN   C421154   8.840   2.470   5.786 -0.2380  0.6072 -0.0540
 2117DECAN   C521155   8.987   2.475   5.738 -0.3181  0.3759 -0.3283
 2117DECAN   C621156   9.000   2.543   5.600  0.8449  0.5371 -0.1420
 2117DECAN   C721157   8.952   2.449   5.488  0.6248  0.1516  0.2706
 2117DECAN   C821158   8.954   2.526   5.355 -0.4890  0.0362  0.1825
 2117DECAN   C921159   9.082   2.610   5.341 -0.0522 -0.6456  0.0280
 2117DECAN  C1021160   9.205   2.519   5.360  0.0678 -0.4552  0.1739
 2118DECAN   C121161   9.650   2.327  13.450  0.2120  0.3771  0.2348
 2118DECAN   C221162   9.774   2.245  13.490  0.5670  0.6621 -0.2669
 2118DECAN   C321163   9.901   2.332  13.499  0.8246  0.2469  0.1827
 2118DECAN   C421164  10.025   2.254  13.546  0.6155  0.0176  0.3577
 2118DECAN   C521165  10.074   2.167  13.429 -0.3263  0.2706 -0.2367
 2118DECAN   C621166  10.159   2.044  13.464 -1.1934 -0.1552  0.4202
 2118DECAN   C721167  10.123   1.960  13.588 -0.2451 -0.6201  0.3900
 2118DECAN   C821168  10.238   1.877  13.649  0.4065  0.1223  0.1981
 2118DECAN   C921169  10.302   1.783  13.546  0.1559 -0.1423  0.2801
 2118DECAN  C1021170  10.207   1.667  13.510  0.0768  0.0260 -0.0592
 2119DECAN   C121171   8.506  10.012   6.699  0.0531 -1.2527 -0.0853
 2119DECAN   C221172   8.564   9.948   6.827 -0.4623 -0.5916  0.4841
 2119DECAN   C321173   8.643  10.034   6.928 -0.1701 -0.7834  0.4189
 2119DECAN   C421174   8.731   9.958   7.029  0.4876 -0.4765  0.0825
 2119DECAN   C521175   8.803  10.042   7.136  0.1144  0.4380 -0.3678
 2119DECAN   C621176   8.829   9.960   7.264 -0.4943 -0.0177 -0.5305
 2119DECAN   C721177   8.695   9.915   7.325 -0.1135 -0.0532  0.2958
 2119DECAN   C821178   8.716   9.851   7.464  0.6554 -0.0112  0.2036
 2119DECAN   C921179   8.716   9.956   7.577  0.0264 -0.0318  0.2293
 2119DECAN  C1021180   8.703   9.898   7.719  0.3582  0.0755  0.3056
 2120DECAN   C121181   5.694   3.004   6.369  1.2305 -0.0656 -0.1937
 2120DECAN   C221182   5.662   2.989   6.219  0.1309  0.1164  0.0135
 2120DECAN   C321183   5.776   2.916   6.144 -0.1530  0.1761 -0.4840
 2120DECAN   C421184   5.767   2.926   5.991 -0.1999  0.8712 -0.4389
 2120DECAN   C521185   5.848   2.812   5.926 -0.1006  0.5102  0.3092
 2120DECAN   C621186   5.991   2.789   5.976  0.0358  0.0362 -0.2917
 2120DECAN   C721187   6.059   2.653   5.952 -0.2537 -0.1835  0.1331
 2120DECAN   C821188   6.212   2.640   5.969 -0.1660  0.0141 -0.4945
 2120DECAN   C921189   6.242   2.649   6.120  0.3261 -0.3666 -0.5717
 2120DECAN  C1021190   6.388   2.655   6.169  0.0563 -0.3466  0.2265
 2121DECAN   C121191   9.357   5.487   7.093 -0.0377 -0.2262  0.5285
 2121DECAN   C221192   9.493   5.416   7.100 -0.1259 -0.4877 -0.3062
 2121DECAN   C321193   9.490   5.265   7.131 -0.7239 -0.4039  0.0522
 2121DECAN   C421194   9.622   5.196   7.169 -0.2520  0.4033 -0.1003
 2121DECAN   C521195   9.602   5.044   7.159  0.1323  0.3577 -0.2177
 2121DECAN   C621196   9.735   4.969   7.144  0.1606  0.4897 -0.6594
 2121DECAN   C721197   9.700   4.821   7.119  0.2223  0.4729 -0.6509
 2121DECAN   C821198   9.825   4.733   7.100 -0.1296 -0.2130  0.1133
 2121DECAN   C921199   9.804   4.584   7.071 -0.0031 -0.0401 -0.9149
 2121DECAN  C1021200   9.923   4.497   7.027  0.3310  0.0824 -0.2694
 2122DECAN   C121201   5.241   1.689  10.405  0.0648 -0.5276 -0.0394
 2122DECAN   C221202   5.230   1.755  10.544  0.2960 -0.2158 -0.1679
 2122DECAN   C321203   5.145   1.659  10.629  0.4802  0.2371  0.5345
 2122DECAN   C421204   5.117   1.708  10.772 -0.5915 -0.0148  0.4203
 2122DECAN   C521205   4.996   1.799  10.799 -0.1971  0.6452 -0.0204
 2122DECAN   C621206   4.996   1.833  10.949 -0.0493  0.4448  0.0262
 2122DECAN   C721207   4.914   1.952  11.002 -0.1330  0.1227  0.6355
 2122DECAN   C821208   4.765   1.954  10.963  0.0071 -0.1626  0.0692
 2122DECAN   C921209   4.745   1.892  10.824 -0.2179  0.1159 -0.0228
 2122DECAN  C1021210   4.600   1.887  10.771 -0.4705 -0.4575  0.7159
 2123DECAN   C121211   2.831   3.651   3.999  0.4946 -0.2488 -0.2854
 2123DECAN   C221212   2.791   3.592   3.862 -0.6349  0.2668 -0.1813
 2123DECAN   C321213   2.709   3.465   3.894 -0.5564  0.1837 -0.3089
 2123DECAN   C421214   2.584   3.488   3.982 -0.1311  0.2575  0.2763
 2123DECAN   C521215   2.495   3.366   4.013 -0.0522  0.1277 -0.0005
 2123DECAN   C621216   2.365   3.392   4.092  0.3977 -0.0336  0.8048
 2123DECAN   C721217   2.367   3.482   4.217  0.2648  0.0147  0.7736
 2123DECAN   C821218   2.335   3.629   4.183 -0.2737 -0.0711  0.9142
 2123DECAN   C921219   2.197   3.637   4.114  0.0392 -0.5791  0.2155
 2123DECAN  C1021220   2.066   3.631   4.194  0.2670 -0.2156  0.6245
 2124DECAN   C121221   4.123   2.987   4.428 -0.0964 -0.4226 -0.4012
 2124DECAN   C221222   3.988   2.914   4.413 -0.3938 -0.0468  0.3966
 2124DECAN   C321223   3.994   2.762   4.435 -0.1175 -0.1175 -0.1575
 2124DECAN   C421224   3.855   2.697   4.425 -0.1703 -0.0143 -0.0845
 2124DECAN   C521225   3.762   2.726   4.544 -0.6375  0.0128 -0.4507
 2124DECAN   C621226   3.746   2.875   4.580 -0.3550  0.0107 -0.3120
 2124DECAN   C721227   3.652   2.907   4.697  0.5925 -0.5403  0.6202
 2124DECAN   C821228   3.644   3.057   4.733  0.7082 -0.3581 -0.0941
 2124DECAN   C921229   3.550   3.097   4.848  0.4246 -0.8489 -0.1518
 2124DECAN  C1021230   3.573   3.027   4.983 -0.7566 -0.6466  0.1691
 2125DECAN   C121231  10.169  10.972  14.655  0.1000 -0.5659  0.1429
 2125DECAN   C221232  10.156  11.058  14.528 -0.4229 -0.2486  0.4083
 2125DECAN   C321233  10.055  11.175  14.524 -0.3199 -0.1757 -0.2649
 2125DECAN   C421234  10.074   0.041  14.418  0.0452 -0.0589 -0.0818
 2125DECAN   C521235   9.950   0.132  14.409  0.4987  0.6084  0.3917
 2125DECAN   C621236   9.970   0.262  14.329  0.0193  0.8426  0.6445
 2125DECAN   C721237   9.833   0.320  14.290 -0.3477 -0.4431 -0.0525
 2125DECAN   C821238   9.748   0.340  14.416 -0.2510  0.0396 -0.0618
 2125DECAN   C921239   9.618   0.417  14.384  0.0184  0.3403 -0.4348
 2125DECAN  C1021240   9.513   0.384  14.491  0.1926  0.1507 -0.3213
 2126DECAN   C121241   4.731   5.700   3.987 -0.0576 -0.5118 -0.6056
 2126DECAN   C221242   4.792   5.803   3.890 -0.2746  0.2910  0.0988
 2126DECAN   C321243   4.800   5.944   3.949 -0.4228  0.1849  0.3737
 2126DECAN   C421244   4.906   6.043   3.896 -0.3576 -0.0906 -0.0139
 2126DECAN   C521245   4.909   6.179   3.968 -0.3877  0.1495 -0.4618
 2126DECAN   C621246   5.020   6.282   3.939 -0.1732 -0.0730 -0.4321
 2126DECAN   C721247   5.163   6.228   3.955 -0.2532 -0.3040 -0.4899
 2126DECAN   C821248   5.264   6.294   3.859 -0.2514  0.7295  0.2082
 2126DECAN   C921249   5.403   6.232   3.879 -0.5775  0.1391  0.6728
 2126DECAN  C1021250   5.487   6.288   3.995 -0.3136  0.1406  0.4834
 2127DECAN   C121251   6.233   3.995  12.960 -0.6354 -0.4207  0.2083
 2127DECAN   C221252   6.308   4.129  12.966 -0.1369 -0.6684 -0.3428
 2127DECAN   C321253   6.253   4.228  12.862  0.3283  0.1116  0.1427
 2127DECAN   C421254   6.287   4.191  12.716 -0.0799  0.4914 -0.0521
 2127DECAN   C521255   6.436   4.156  12.696 -0.1761 -0.1360  0.3078
 2127DECAN   C621256   6.481   4.098  12.561 -0.0719  0.3465  0.1339
 2127DECAN   C721257   6.629   4.068  12.531 -0.2074 -0.2711  0.0559
 2127DECAN   C821258   6.646   4.016  12.387 -0.3144 -0.4524  0.1096
 2127DECAN   C921259   6.559   3.893  12.355 -0.2311 -0.5274  0.1705
 2127DECAN  C1021260   6.592   3.824  12.221 -0.2394  0.8169 -0.5387
 2128DECAN   C121261   9.759   7.526   5.565 -0.1772  0.5175  0.0531
 2128DECAN   C221262   9.764   7.649   5.473  0.1436  0.7707  0.4037
 2128DECAN   C321263   9.620   7.704   5.460  0.0246  0.3217 -0.2085
 2128DECAN   C421264   9.608   7.806   5.345  0.0708  0.1439 -0.3723
 2128DECAN   C521265   9.667   7.763   5.210  0.0804 -0.2225 -0.2512
 2128DECAN   C621266   9.574   7.667   5.133 -0.6396  0.3917 -0.1539
 2128DECAN   C721267   9.626   7.636   4.991  0.1433  0.0514  0.2010
 2128DECAN   C821268   9.644   7.762   4.904  0.1437 -0.1128 -0.0374
 2128DECAN   C921269   9.713   7.749   4.767 -0.0996  0.2439 -0.1969
 2128DECAN  C1021270   9.744   7.866   4.673  0.9853  0.0969 -0.0340
 2129DECAN   C121271   4.275  10.825   6.909  0.0020  0.0072 -0.0121
 2129DECAN   C221272   4.158  10.921   6.883  0.0598  0.0490 -0.1175
 2129DECAN   C321273   4.180  11.054   6.958 -0.3442  0.0260  0.0467
 2129DECAN   C421274   4.310  11.132   6.929 -0.4707  0.1305 -0.2381
 2129DECAN   C521275   4.318   0.018   7.011  0.7396  0.1448 -0.3698
 2129DECAN   C621276   4.341  11.240   7.162 -0.5904 -0.5643 -0.2625
 2129DECAN   C721277   4.324   0.127   7.241  0.4664 -0.7669  0.3120
 2129DECAN   C821278   4.360   0.252   7.159 -0.0682 -0.3785  0.6582
 2129DECAN   C921279   4.326   0.388   7.222 -0.3682 -0.3358  0.4067
 2129DECAN  C1021280   4.334   0.502   7.118  0.1920 -0.7916 -0.0564
 2130DECAN   C121281   3.127   4.294  11.826 -0.3211  0.6342 -0.1108
 2130DECAN   C221282   3.279   4.318  11.829 -0.2367  0.1601 -0.3962
 2130DECAN   C321283   3.309   4.466  11.797 -0.1901  0.2897  0.2315
 2130DECAN   C421284   3.236   4.573  11.880 -0.4137  0.5975 -0.3532
 2130DECAN   C521285   3.312   4.707  11.880 -0.0504  0.3999  0.3178
 2130DECAN   C621286   3.238   4.823  11.948 -0.3864  0.2267  0.2474
 2130DECAN   C721287   3.347   4.926  11.982 -0.0539 -0.1652  0.3833
 2130DECAN   C821288   3.419   4.998  11.866 -0.4242 -0.3815  0.0157
 2130DECAN   C921289   3.324   5.079  11.776 -0.2842 -0.1601  0.0675
 2130DECAN  C1021290   3.398   5.164  11.671 -1.1245  0.2839 -0.1711
 2131DECAN   C121291   9.785  10.505  11.248 -0.1177  0.6280 -0.7033
 2131DECAN   C221292   9.747  10.497  11.398 -0.1065 -0.4533 -0.7463
 2131DECAN   C321293   9.856  10.454  11.498 -0.5538 -0.3956 -0.2357
 2131DECAN   C421294   9.805  10.395  11.631  0.0270 -0.4696 -0.0406
 2131DECAN   C521295   9.756  10.494  11.739 -0.2517  0.0783 -0.6598
 2131DECAN   C621296   9.722  10.440  11.879  0.3306  0.0003 -0.5448
 2131DECAN   C721297   9.649  10.537  11.974  0.1658 -0.2980 -0.3651
 2131DECAN   C821298   9.722  10.667  12.012  0.1953 -0.2213 -0.6807
 2131DECAN   C921299   9.639  10.761  12.101  0.1656 -0.1056 -0.8310
 2131DECAN  C1021300   9.679  10.909  12.091 -0.1445  0.0370 -0.0519
 2132DECAN   C121301  10.147   6.661   9.934  0.3475  0.2344  0.1996
 2132DECAN   C221302  10.138   6.717   9.790 -0.5473  0.2986  0.2779
 2132DECAN   C321303  10.004   6.790   9.772 -0.7564 -0.1640 -0.0662
 2132DECAN   C421304   9.994   6.922   9.851 -0.1617  0.3497 -0.8361
 2132DECAN   C521305  10.114   7.016   9.830  0.0744  0.0973 -0.6271
 2132DECAN   C621306  10.124   7.133   9.929 -0.6221 -0.2201 -0.1653
 2132DECAN   C721307  10.084   7.092  10.072 -0.2719 -0.3431 -0.1012
 2132DECAN   C821308  10.165   6.977  10.133 -0.3148 -0.3127  0.0142
 2132DECAN   C921309  10.125   6.937  10.276  0.0953 -0.0831  0.1969
 2132DECAN  C1021310   9.972   6.920  10.281  0.0877  0.1556  0.8888
 2133DECAN   C121311   6.182   4.349  11.076 -0.0326  0.0853 -0.1600
 2133DECAN   C221312   6.124   4.439  11.187  0.2997 -0.3246  0.3558
 2133DECAN   C321313   6.007   4.378  11.267  0.5654 -0.4503  0.6490
 2133DECAN   C421314   5.937   4.470  11.368  0.0829  0.3643 -0.3978
 2133DECAN   C521315   6.046   4.514  11.469  0.3010 -0.3073 -0.3375
 2133DECAN   C621316   6.146   4.618  11.416  0.2265  0.0647  0.2533
 2133DECAN   C721317   6.250   4.669  11.519  0.3539  0.1553  0.0812
 2133DECAN   C821318   6.348   4.749  11.432 -0.1639  0.0894 -0.5809
 2133DECAN   C921319   6.492   4.770  11.484 -0.1575 -0.9098 -0.1826
 2133DECAN  C1021320   6.596   4.662  11.448  0.5137 -0.2477 -0.2332
 2134DECAN   C121321   9.992   2.933  13.596  0.4518  0.1084  0.2787
 2134DECAN   C221322   9.934   2.822  13.685 -0.4862 -0.0096 -0.4624
 2134DECAN   C321323  10.022   2.765  13.797 -0.2138 -0.2022 -0.7707
 2134DECAN   C421324   9.968   2.633  13.856 -0.1907  0.2198  0.2121
 2134DECAN   C521325  10.062   2.564  13.957 -0.3594 -0.1944  0.0861
 2134DECAN   C621326   9.992   2.437  14.010 -0.1059 -0.3434  0.0652
 2134DECAN   C721327   9.858   2.466  14.079 -0.0445 -0.3043  0.1689
 2134DECAN   C821328   9.748   2.524  13.987 -0.5891 -0.6842  0.5711
 2134DECAN   C921329   9.613   2.554  14.054 -0.3473  0.1926  0.6726
 2134DECAN  C1021330   9.519   2.610  13.946  0.1513 -0.1886  0.0288
 2135DECAN   C121331   1.740   5.526  11.783  0.0167  0.2716 -0.3490
 2135DECAN   C221332   1.681   5.653  11.720 -0.1228  0.3637 -0.0328
 2135DECAN   C321333   1.768   5.772  11.765  0.2586  0.1143 -0.1123
 2135DECAN   C421334   1.749   5.901  11.683 -0.5437 -0.0002 -0.1147
 2135DECAN   C521335   1.848   6.015  11.714 -0.3253 -0.1585 -0.2271
 2135DECAN   C621336   1.822   6.131  11.615  0.2956  0.1168 -0.0700
 2135DECAN   C721337   1.902   6.257  11.653  0.1773  0.2062 -0.1193
 2135DECAN   C821338   1.933   6.346  11.531  0.5393  0.2852  0.0324
 2135DECAN   C921339   2.036   6.458  11.558  0.7652 -0.0120  0.4160
 2135DECAN  C1021340   2.090   6.534  11.435  0.0719  0.0144  0.1252
 2136DECAN   C121341  10.831   0.246   8.366 -0.4527 -0.1602  0.6695
 2136DECAN   C221342  10.893   0.138   8.456  0.2518 -0.1705  0.1717
 2136DECAN   C321343  10.822   0.002   8.463  0.4945 -0.3037  0.0636
 2136DECAN   C421344  10.874  11.125   8.544  0.0288 -0.3977  0.2275
 2136DECAN   C521345  10.811  10.990   8.506 -0.2627 -0.1011 -0.3516
 2136DECAN   C621346  10.865  10.875   8.591  0.0422  0.3807  0.1115
 2136DECAN   C721347  10.827  10.731   8.551 -0.1202  0.3312  0.4391
 2136DECAN   C821348  10.884  10.627   8.650 -0.2012 -0.7412 -0.6137
 2136DECAN   C921349  10.868  10.482   8.602 -0.1806 -0.8561 -0.2756
 2136DECAN  C1021350  10.871  10.377   8.714  0.8460 -0.6076 -0.0582
 2137DECAN   C121351   7.264   2.008   6.144  0.4323  0.0392 -0.0738
 2137DECAN   C221352   7.305   2.031   5.997 -0.3071  0.9374 -0.1475
 2137DECAN   C321353   7.452   2.070   5.971  0.1467 -0.1969  0.6456
 2137DECAN   C421354   7.561   1.980   6.032  0.4050 -0.0221  0.4398
 2137DECAN   C521355   7.568   2.009   6.183  0.2513  0.2195  0.3989
 2137DECAN   C621356   7.639   1.921   6.287 -0.1695 -0.5604  0.0330
 2137DECAN   C721357   7.621   1.988   6.425 -0.4771 -0.2707 -0.1457
 2137DECAN   C821358   7.695   1.906   6.532  0.0366 -0.3599 -0.5635
 2137DECAN   C921359   7.846   1.913   6.503  0.1132  0.6524  0.0567
 2137DECAN  C1021360   7.903   1.881   6.364 -0.3773  0.2698 -0.0584
 2138DECAN   C121361   5.336   4.632   9.078  0.3535 -0.4604 -0.1201
 2138DECAN   C221362   5.198   4.581   9.121  0.2318 -0.4587 -0.5084
 2138DECAN   C321363   5.100   4.564   9.002 -0.0430  0.4879 -0.4232
 2138DECAN   C421364   4.972   4.490   9.044  0.5307 -0.3438 -0.1004
 2138DECAN   C521365   4.904   4.566   9.160  0.6238 -0.3878 -0.0172
 2138DECAN   C621366   4.774   4.494   9.202  0.4867  0.0401  0.2997
 2138DECAN   C721367   4.681   4.573   9.296 -0.0219 -0.1868 -0.0097
 2138DECAN   C821368   4.746   4.589   9.435  0.5194 -0.2716 -0.2474
 2138DECAN   C921369   4.672   4.688   9.528  0.7181 -0.6359  0.3036
 2138DECAN  C1021370   4.554   4.614   9.593  0.2486  0.1233  0.3277
 2139DECAN   C121371   4.393   2.478   7.635 -0.1474  0.1990  0.5538
 2139DECAN   C221372   4.354   2.363   7.540  0.7799  0.6676 -0.4152
 2139DECAN   C321373   4.241   2.401   7.443 -0.2435 -0.2171  0.4088
 2139DECAN   C421374   4.185   2.275   7.373  0.2946 -0.3059  0.1369
 2139DECAN   C521375   4.152   2.293   7.224 -0.4457 -0.4909  0.2780
 2139DECAN   C621376   4.265   2.265   7.123 -0.4992 -0.2798  0.1606
 2139DECAN   C721377   4.395   2.347   7.137 -0.3198 -0.5439  0.0360
 2139DECAN   C821378   4.519   2.310   7.054 -0.1092  0.2453 -0.0058
 2139DECAN   C921379   4.652   2.379   7.090 -0.1589  0.2792  0.1133
 2139DECAN  C1021380   4.785   2.334   7.026 -0.4620 -0.2762 -0.1309
 2140DECAN   C121381   9.367   1.497  11.659  0.1289 -0.2659 -1.0192
 2140DECAN   C221382   9.387   1.391  11.768 -0.7296  0.1611 -0.4400
 2140DECAN   C321383   9.323   1.446  11.897 -0.1668  0.0396 -0.1041
 2140DECAN   C421384   9.295   1.350  12.014  0.1848  0.2708  0.1676
 2140DECAN   C521385   9.413   1.315  12.107  0.1741  0.1776  0.1462
 2140DECAN   C621386   9.510   1.428  12.147  0.3749  0.0064  0.1496
 2140DECAN   C721387   9.640   1.395  12.222  0.7201  0.6697 -0.1432
 2140DECAN   C821388   9.708   1.520  12.280  0.0455  0.6391  0.7428
 2140DECAN   C921389   9.608   1.614  12.349 -0.6153  0.0659  0.5784
 2140DECAN  C1021390   9.663   1.758  12.359  0.0832 -0.1709  0.2414
 2141DECAN   C121391   4.392   5.493   5.034 -0.3384 -0.0528 -0.0096
 2141DECAN   C221392   4.317   5.413   4.926 -0.2147 -0.0304 -0.1135
 2141DECAN   C321393   4.177   5.355   4.954 -0.0799 -0.0774  0.4715
 2141DECAN   C421394   4.118   5.272   4.839  0.0813 -0.0235  0.3503
 2141DECAN   C521395   3.972   5.240   4.874 -0.0707 -0.0755 -0.3067
 2141DECAN   C621396   3.880   5.364   4.886  0.2909  0.1839 -0.2038
 2141DECAN   C721397   3.845   5.437   4.755 -0.6344 -0.2052 -0.1765
 2141DECAN   C821398   3.742   5.551   4.758 -0.6457 -0.2136 -0.2351
 2141DECAN   C921399   3.672   5.596   4.628 -0.3889 -0.1674 -0.3561
 2141DECAN  C1021400   3.773   5.642   4.521 -0.5004  0.4337 -0.2052
 2142DECAN   C121401   5.259   2.674  10.339  0.4800  0.4968 -0.1684
 2142DECAN   C221402   5.202   2.651  10.480 -0.5811  0.5391 -0.5803
 2142DECAN   C321403   5.058   2.598  10.493 -0.4217  0.1305 -0.4608
 2142DECAN   C421404   5.028   2.543  10.634  0.3828  0.5024 -0.1362
 2142DECAN   C521405   4.901   2.457  10.647  0.4683  0.3991  0.0206
 2142DECAN   C621406   4.881   2.392  10.785 -0.0384 -0.5861 -0.5014
 2142DECAN   C721407   4.984   2.282  10.815  0.3990 -0.0111  0.1364
 2142DECAN   C821408   5.130   2.330  10.813  0.1884  0.6202 -0.5192
 2142DECAN   C921409   5.242   2.225  10.800 -0.1372  0.1419  0.4590
 2142DECAN  C1021410   5.384   2.286  10.807  0.0013 -0.1397  0.1538
 2143DECAN   C121411   2.811   3.904   6.674  0.1596 -0.1400 -0.0662
 2143DECAN   C221412   2.924   3.994   6.620  0.2323 -0.3602 -0.2825
 2143DECAN   C321413   3.057   3.970   6.693  0.4497 -0.1911 -0.6204
 2143DECAN   C421414   3.064   3.995   6.845 -0.1419 -0.1027 -0.6083
 2143DECAN   C521415   2.963   3.910   6.924  0.4310 -0.3196 -0.1061
 2143DECAN   C621416   3.027   3.787   6.992  0.1956 -0.4679 -0.1487
 2143DECAN   C721417   2.932   3.704   7.079  0.1049 -0.2367 -0.0257
 2143DECAN   C821418   2.841   3.782   7.176  0.0261 -0.4259  0.0540
 2143DECAN   C921419   2.774   3.686   7.276  0.2664 -0.2213  0.4120
 2143DECAN  C1021420   2.629   3.717   7.317  0.0632 -0.5392 -0.0592
 2144DECAN   C121421   2.254   5.953  10.090  0.3180  0.0270 -0.0280
 2144DECAN   C221422   2.188   5.824  10.037  0.2667 -0.0009  0.1040
 2144DECAN   C321423   2.049   5.815  10.102 -0.2376  0.4878 -0.8941
 2144DECAN   C421424   1.983   5.677  10.084  0.2346  0.1849 -0.3264
 2144DECAN   C521425   1.852   5.673  10.164  0.5399 -0.1925  0.1646
 2144DECAN   C621426   1.741   5.755  10.095  0.4159 -0.1629  0.4016
 2144DECAN   C721427   1.622   5.793  10.187  0.3455  1.0833 -0.1866
 2144DECAN   C821428   1.486   5.815  10.119  0.0461  0.4930  0.2176
 2144DECAN   C921429   1.398   5.891  10.220 -0.6014  0.3247 -0.2096
 2144DECAN  C1021430   1.447   6.034  10.251 -0.3062  0.0512  0.5944
 2145DECAN   C121431  10.341   9.928  11.072 -0.5220  0.6569 -0.7977
 2145DECAN   C221432  10.467  10.018  11.069  0.0188 -0.0486  0.1867
 2145DECAN   C321433  10.544  10.026  10.936 -0.3477  0.0117 -0.0253
 2145DECAN   C421434  10.648   9.912  10.929  0.1671  0.4323  0.6265
 2145DECAN   C521435  10.714   9.895  10.791 -0.7251 -0.3613  0.2862
 2145DECAN   C621436  10.814   9.777  10.795 -0.2128  0.0713  0.4325
 2145DECAN   C721437  10.776   9.648  10.868 -0.0440 -0.1170  0.1865
 2145DECAN   C821438  10.860   9.525  10.828  0.0588 -0.0747  0.2706
 2145DECAN   C921439  10.823   9.401  10.913 -0.2234  0.0502  0.3300
 2145DECAN  C1021440  10.879   9.272  10.849  0.1379  0.2249  0.2910
 2146DECAN   C121441   3.708   7.162   7.558 -0.5975 -0.1041  0.2767
 2146DECAN   C221442   3.651   7.276   7.645 -0.1002  0.6406 -0.3560
 2146DECAN   C321443   3.755   7.320   7.750 -0.2208  0.3403 -0.1103
 2146DECAN   C421444   3.892   7.364   7.695 -0.0995  0.4458  0.2704
 2146DECAN   C521445   3.987   7.413   7.806  0.3823 -0.0589  0.0888
 2146DECAN   C621446   3.947   7.551   7.860  0.7864  0.0305  0.1580
 2146DECAN   C721447   3.948   7.663   7.754  0.2380  0.2236  0.3506
 2146DECAN   C821448   3.860   7.783   7.792 -0.2476 -0.0844  0.2041
 2146DECAN   C921449   3.893   7.915   7.719  0.0287 -0.2226  0.0791
 2146DECAN  C1021450   3.774   8.012   7.735  0.1985 -0.0723  0.4641
 2147DECAN   C121451   7.733   4.062  12.771  0.4132 -0.0476 -0.3560
 2147DECAN   C221452   7.871   4.003  12.806  0.3565  0.0978  0.1213
 2147DECAN   C321453   7.968   4.102  12.873  0.2148  0.4663 -0.2121
 2147DECAN   C421454   7.938   4.113  13.023  0.2732  0.4348 -0.1983
 2147DECAN   C521455   8.019   4.221  13.098  0.4661  0.1927 -0.0565
 2147DECAN   C621456   8.005   4.206  13.251  0.2905 -0.1190 -0.1019
 2147DECAN   C721457   8.077   4.315  13.332 -0.3041  0.1789  0.0247
 2147DECAN   C821458   8.030   4.304  13.479  0.4254 -0.0634  0.2405
 2147DECAN   C921459   8.074   4.172  13.544 -0.2417 -0.4984 -0.1894
 2147DECAN  C1021460   8.041   4.046  13.461  0.3422 -0.4887 -0.4431
 2148DECAN   C121461   8.040  10.642   8.197  0.3407 -0.0820  0.0208
 2148DECAN   C221462   8.069  10.638   8.046 -0.1351  0.1936 -0.0782
 2148DECAN   C321463   8.219  10.643   8.013 -0.1046  0.6009  0.1109
 2148DECAN   C421464   8.254  10.679   7.867 -0.3162  0.0293 -0.0852
 2148DECAN   C521465   8.399  10.720   7.838 -0.2450 -0.2320 -0.1022
 2148DECAN   C621466   8.426  10.772   7.696 -0.0489 -0.4359 -0.1407
 2148DECAN   C721467   8.559  10.848   7.680 -0.1822 -0.1981 -0.1266
 2148DECAN   C821468   8.589  10.928   7.552  0.1231 -0.2160 -0.0673
 2148DECAN   C921469   8.549  10.863   7.418 -0.1152  0.1026 -0.1520
 2148DECAN  C1021470   8.557  10.965   7.302 -0.5416 -0.0184 -0.2900
 2149DECAN   C121471   1.597   7.072  12.190  0.0854  0.4347  0.2015
 2149DECAN   C221472   1.630   7.191  12.281  0.0773  0.6352 -0.0553
 2149DECAN   C321473   1.521   7.299  12.293 -0.4688  0.1202 -0.3372
 2149DECAN   C421474   1.551   7.418  12.387  0.1391 -0.5855  0.3712
 2149DECAN   C521475   1.521   7.370  12.531 -0.2377 -0.4718  0.3318
 2149DECAN   C621476   1.535   7.474  12.644 -0.0636  0.1205 -0.2258
 2149DECAN   C721477   1.474   7.423  12.775  0.5531  0.0025  0.0206
 2149DECAN   C821478   1.533   7.289  12.823  0.2744 -0.1460 -0.0493
 2149DECAN   C921479   1.467   7.255  12.958  0.1858 -0.4863 -0.1773
 2149DECAN  C1021480   1.502   7.115  13.013 -0.3939 -0.5749 -0.0282
 2150DECAN   C121481   8.044   5.084  13.356 -0.3801  0.4825 -0.0583
 2150DECAN   C221482   7.938   5.053  13.464 -0.2867  0.0397 -0.0932
 2150DECAN   C321483   7.981   4.925  13.537  1.0680  0.5959  0.1180
 2150DECAN   C421484   7.902   4.891  13.665  0.0097 -0.2360 -0.7312
 2150DECAN   C521485   7.759   4.842  13.641 -0.1642 -0.0881 -0.0034
 2150DECAN   C621486   7.687   4.792  13.768 -0.0109  0.2517  0.2176
 2150DECAN   C721487   7.537   4.790  13.735 -0.0257 -0.5188  0.3013
 2150DECAN   C821488   7.477   4.706  13.620 -0.1839 -0.4533  0.3349
 2150DECAN   C921489   7.558   4.583  13.575  0.5027  0.1912 -0.2143
 2150DECAN  C1021490   7.515   4.534  13.436 -0.0486 -0.2317  0.1020
 2151DECAN   C121491   4.891   5.917  13.433 -0.4774  0.2019  0.0932
 2151DECAN   C221492   5.001   5.823  13.485 -0.5400 -0.3603 -0.7697
 2151DECAN   C321493   5.095   5.767  13.377  0.4137  0.1953 -0.2452
 2151DECAN   C421494   5.225   5.700  13.425  0.2521  0.0946  0.0522
 2151DECAN   C521495   5.306   5.631  13.314  0.2469  0.2409 -0.0444
 2151DECAN   C621496   5.442   5.578  13.365  0.1664  0.0266 -0.0502
 2151DECAN   C721497   5.512   5.496  13.256  0.3776 -0.3346  0.3534
 2151DECAN   C821498   5.423   5.390  13.188  0.1233 -0.0319  0.2127
 2151DECAN   C921499   5.490   5.335  13.061 -0.2142 -0.1565  0.0873
 2151DECAN  C1021500   5.506   5.446  12.955 -0.1777 -0.0386  0.2164
 2152DECAN   C121501   1.848  10.368  14.265  0.2544 -0.3772 -0.4007
 2152DECAN   C221502   1.734  10.460  14.316  0.5469  0.0961 -0.5986
 2152DECAN   C321503   1.601  10.416  14.252  0.2346  0.3879 -0.1515
 2152DECAN   C421504   1.479  10.501  14.290 -0.0255 -0.3163  0.6306
 2152DECAN   C521505   1.352  10.445  14.223  0.1453  0.4038 -0.3247
 2152DECAN   C621506   1.230  10.536  14.238  0.0839  0.1905  0.5684
 2152DECAN   C721507   1.248  10.663  14.152 -0.7887  0.1329  0.2797
 2152DECAN   C821508   1.208  10.657  14.004  0.3211 -0.3073 -0.0098
 2152DECAN   C921509   1.245  10.788  13.933 -0.0277 -0.0625  0.2623
 2152DECAN  C1021510   1.394  10.787  13.897  0.0310  0.1431  0.4934
 2153DECAN   C121511   5.865   8.939   8.619  0.3888 -0.5392 -0.0123
 2153DECAN   C221512   5.756   9.048   8.627  0.0784 -0.8550  0.0748
 2153DECAN   C321513   5.612   9.010   8.664  0.0015 -0.0043  0.6627
 2153DECAN   C421514   5.539   8.913   8.570  0.4417 -0.1940  0.5135
 2153DECAN   C521515   5.399   8.884   8.628  0.1199  0.1725 -0.0716
 2153DECAN   C621516   5.322   8.785   8.538 -0.0799  0.2773 -0.0159
 2153DECAN   C721517   5.313   8.850   8.398 -0.3024  0.0756 -0.0955
 2153DECAN   C821518   5.246   8.756   8.297  0.0657  0.0996 -0.3641
 2153DECAN   C921519   5.095   8.737   8.322  0.1252 -0.3533 -0.3346
 2153DECAN  C1021520   5.009   8.864   8.310  0.1525 -0.3434 -0.4349
 2154DECAN   C121521   6.810   9.837   8.362 -0.0897 -0.2878 -0.2303
 2154DECAN   C221522   6.859   9.969   8.301  0.2005  0.0966  0.8157
 2154DECAN   C321523   6.790  10.020   8.173  0.2974 -0.8245  0.3901
 2154DECAN   C421524   6.642  10.047   8.206  0.3780 -0.4217  0.4344
 2154DECAN   C521525   6.617  10.167   8.299  0.1305 -0.3923  0.3320
 2154DECAN   C621526   6.469  10.193   8.331  0.3702 -0.0015  1.1385
 2154DECAN   C721527   6.430  10.320   8.410 -0.0464  0.4578  0.2173
 2154DECAN   C821528   6.277  10.320   8.419 -0.0723 -0.7556 -0.0749
 2154DECAN   C921529   6.216  10.314   8.278 -0.5628  0.3783  0.0853
 2154DECAN  C1021530   6.252  10.180   8.212 -0.4454  0.7618 -0.6342
 2155DECAN   C121531  10.664   7.450   7.607 -0.1883 -0.4473  0.3366
 2155DECAN   C221532  10.618   7.326   7.528  0.2352 -0.0092 -0.6265
 2155DECAN   C321533  10.464   7.328   7.528  0.2323  0.3819 -0.0652
 2155DECAN   C421534  10.384   7.305   7.657 -0.2611  0.3253 -0.3752
 2155DECAN   C521535  10.232   7.283   7.642 -0.2251 -0.3417  0.2088
 2155DECAN   C621536  10.168   7.246   7.777 -0.0743 -0.3445  0.2809
 2155DECAN   C721537  10.016   7.267   7.793 -0.0173  0.2072  0.1226
 2155DECAN   C821538   9.962   7.238   7.935  0.3215 -0.4316  0.1253
 2155DECAN   C921539   9.809   7.250   7.953  0.3388 -0.7929  0.5296
 2155DECAN  C1021540   9.729   7.162   7.855 -0.2293  0.2501  0.0382
 2156DECAN   C121541   1.324   7.489   9.679  0.0417 -0.0959  0.1483
 2156DECAN   C221542   1.348   7.369   9.585  0.1284  0.2115 -0.2260
 2156DECAN   C321543   1.308   7.388   9.438 -0.3250  0.4468 -0.0733
 2156DECAN   C421544   1.350   7.264   9.357 -0.4693  0.3635 -0.0210
 2156DECAN   C521545   1.281   7.260   9.219  0.2147  0.3995 -0.3698
 2156DECAN   C621546   1.305   7.130   9.140 -0.5275 -0.0911  0.2054
 2156DECAN   C721547   1.174   7.051   9.118 -0.2665 -0.4204 -0.1639
 2156DECAN   C821548   1.206   6.901   9.102 -0.4067 -0.3455 -1.2198
 2156DECAN   C921549   1.084   6.807   9.096 -0.4487 -0.3940  0.0837
 2156DECAN  C1021550   1.123   6.660   9.066 -0.2602 -0.3054 -0.1119
 2157DECAN   C121551   4.834   9.540  10.239  0.0358 -0.0581  0.8902
 2157DECAN   C221552   4.845   9.400  10.174 -0.2811  0.4357 -0.2540
 2157DECAN   C321553   4.729   9.302  10.200 -0.2653  0.5709  0.3506
 2157DECAN   C421554   4.739   9.167  10.128  0.4749  0.7466  0.1075
 2157DECAN   C521555   4.714   9.178   9.976 -0.2221 -0.2416  0.1331
 2157DECAN   C621556   4.762   9.046   9.913  0.1156  0.2812 -0.7271
 2157DECAN   C721557   4.649   8.947   9.947  0.6216 -0.0408  0.0471
 2157DECAN   C821558   4.646   8.919  10.098 -0.1962  0.0017  0.0436
 2157DECAN   C921559   4.548   8.804  10.128 -0.1259 -0.0134  0.2201
 2157DECAN  C1021560   4.407   8.849  10.085  0.2259 -0.0680 -1.0396
 2158DECAN   C121561   5.307   7.542  15.121  0.3608 -0.4684  0.0791
 2158DECAN   C221562   5.279   7.565  14.971  0.1764 -0.0361  0.1797
 2158DECAN   C321563   5.142   7.508  14.928  0.3263 -0.0688 -0.2611
 2158DECAN   C421564   5.028   7.550  15.023  0.1652 -0.2408 -0.3781
 2158DECAN   C521565   4.895   7.480  14.991 -0.0424 -0.0472  0.0617
 2158DECAN   C621566   4.786   7.515  15.095 -0.2220  0.2144 -0.2142
 2158DECAN   C721567   4.657   7.448  15.043 -0.4281  0.3333  0.1422
 2158DECAN   C821568   4.536   7.474  15.134 -0.4955 -0.2945  0.2375
 2158DECAN   C921569   4.405   7.441  15.061 -0.3900 -0.4880  0.1350
 2158DECAN  C1021570   4.284   7.500  15.137  0.1120  0.2367  0.3923
 2159DECAN   C121571   3.399   9.153   9.483 -0.2535  0.0176 -0.2059
 2159DECAN   C221572   3.544   9.191   9.445 -0.1122  0.0891  0.4031
 2159DECAN   C321573   3.656   9.098   9.492  0.1861 -0.0395 -0.5510
 2159DECAN   C421574   3.800   9.141   9.455  0.2991  0.0363 -0.0271
 2159DECAN   C521575   3.900   9.026   9.475  0.4984  0.1908 -0.1368
 2159DECAN   C621576   3.876   8.921   9.365  0.0631  0.1558 -0.0109
 2159DECAN   C721577   3.956   8.791   9.387 -0.1492 -0.0100 -0.2128
 2159DECAN   C821578   3.908   8.710   9.509  0.4432  0.3960  0.2944
 2159DECAN   C921579   3.960   8.755   9.647  0.1807  0.4775  0.3672
 2159DECAN  C1021580   3.910   8.656   9.754  0.2840  0.1697  0.1303
 2160DECAN   C121581   9.846   6.016   4.782 -0.5156 -0.6882  0.5754
 2160DECAN   C221582   9.792   5.897   4.700 -0.2656 -0.6343  0.3308
 2160DECAN   C321583   9.638   5.892   4.688 -0.2769  0.3165  0.0290
 2160DECAN   C421584   9.572   5.899   4.827 -0.2040  0.0266  0.0772
 2160DECAN   C521585   9.419   5.883   4.838 -0.1826 -0.3178 -0.0847
 2160DECAN   C621586   9.352   5.877   4.977  0.0604  0.3265  0.0641
 2160DECAN   C721587   9.202   5.903   4.952 -0.0244  0.1122  0.3464
 2160DECAN   C821588   9.137   5.769   4.915 -0.0351  0.0953  0.4265
 2160DECAN   C921589   8.983   5.776   4.918 -0.0694 -0.4154  0.0851
 2160DECAN  C1021590   8.916   5.652   4.857  0.0623 -0.3817 -0.1272
 2161DECAN   C121591   4.987   3.132  12.859 -0.4804  0.6196  0.1820
 2161DECAN   C221592   5.047   3.118  12.717 -0.3290 -0.2399  0.3239
 2161DECAN   C321593   4.960   3.047  12.613 -0.0713  0.2710 -0.2485
 2161DECAN   C421594   4.998   2.898  12.616 -0.0914  0.2628 -0.4105
 2161DECAN   C521595   4.941   2.797  12.514  0.4647 -0.7444  0.2650
 2161DECAN   C621596   5.011   2.802  12.377 -0.2672  0.8648 -0.0649
 2161DECAN   C721597   4.968   2.913  12.279 -0.0209  0.4724 -0.6273
 2161DECAN   C821598   5.015   2.896  12.134  0.1145  0.2324 -0.5572
 2161DECAN   C921599   4.934   2.977  12.030 -0.0548  0.3585 -0.3292
 2161DECAN  C1021600   4.784   2.942  12.033  0.0354  0.0403  0.6114
 2162DECAN   C121601   5.312   0.880   6.454  0.2330 -0.5450 -0.1746
 2162DECAN   C221602   5.250   0.789   6.346 -0.1319 -0.1030 -0.3376
 2162DECAN   C321603   5.103   0.824   6.313 -0.0328 -0.0010 -0.6628
 2162DECAN   C421604   5.084   0.969   6.263 -0.5129  0.2048  0.1045
 2162DECAN   C521605   4.935   1.003   6.242 -0.5666 -0.0548  0.0570
 2162DECAN   C621606   4.921   1.137   6.168 -0.3854 -0.3952 -0.5989
 2162DECAN   C721607   4.969   1.143   6.022  0.6359 -0.4584 -0.2768
 2162DECAN   C821608   4.965   1.288   5.971  0.0344 -0.4248 -0.1380
 2162DECAN   C921609   4.844   1.316   5.879 -0.4668  0.0480  0.6453
 2162DECAN  C1021610   4.838   1.460   5.824 -0.4852 -0.1331  0.1640
 2163DECAN   C121611   2.866  11.174  12.537 -0.0535  0.3145  0.3310
 2163DECAN   C221612   2.957  11.196  12.659  0.1935  0.1206  0.1838
 2163DECAN   C321613   3.103  11.155  12.634  0.0929 -0.2452  0.1874
 2163DECAN   C421614   3.209  11.163  12.746  0.1802 -0.5277  0.1234
 2163DECAN   C521615   3.354  11.126  12.707  0.1815 -0.2497 -0.1405
 2163DECAN   C621616   3.373  10.974  12.721 -0.1155 -0.2757 -0.0046
 2163DECAN   C721617   3.502  10.910  12.665 -0.2349 -0.3498 -0.1954
 2163DECAN   C821618   3.504  10.756  12.651  0.9472 -0.3756  0.2132
 2163DECAN   C921619   3.596  10.704  12.539  0.5893 -0.1043 -0.2082
 2163DECAN  C1021620   3.743  10.748  12.544  0.3265  0.7670  0.0604
 2164DECAN   C121621   4.794  10.639  13.243  0.1858 -0.0413 -0.0497
 2164DECAN   C221622   4.680  10.535  13.249  0.3019 -0.1671 -0.0291
 2164DECAN   C321623   4.685  10.426  13.140  0.0369 -0.5161  0.3056
 2164DECAN   C421624   4.567  10.327  13.142 -0.4003 -0.0116 -0.0637
 2164DECAN   C521625   4.542  10.254  13.008 -0.0433  0.0766 -0.1778
 2164DECAN   C621626   4.412  10.172  13.010 -0.3257  0.5275  0.8774
 2164DECAN   C721627   4.424  10.052  13.105  0.0404 -0.1197  0.0285
 2164DECAN   C821628   4.295   9.969  13.099 -0.0110 -0.0547  0.2047
 2164DECAN   C921629   4.289   9.858  13.207  0.4120 -0.3648 -0.0875
 2164DECAN  C1021630   4.158   9.779  13.220 -0.0541  0.3130 -0.5816
 2165DECAN   C121631   1.456   1.954  10.682  0.4464  0.0136 -0.2460
 2165DECAN   C221632   1.513   1.812  10.701  0.1527  0.0263  0.7889
 2165DECAN   C321633   1.664   1.822  10.731  0.3021  0.5088 -0.0939
 2165DECAN   C421634   1.727   1.685  10.763 -0.3805  0.0662 -0.6305
 2165DECAN   C521635   1.876   1.665  10.731 -0.1745 -0.0943  0.3936
 2165DECAN   C621636   1.938   1.548  10.809  0.1271  0.1050  0.4531
 2165DECAN   C721637   2.092   1.547  10.794  0.0607 -0.3891 -0.2199
 2165DECAN   C821638   2.159   1.418  10.845 -0.1677 -0.2824  0.3551
 2165DECAN   C921639   2.128   1.293  10.760 -0.1845 -0.0705  0.0479
 2165DECAN  C1021640   1.984   1.285  10.706 -0.1157 -0.8512 -0.0240
 2166DECAN   C121641   9.254   5.301   3.827 -0.0113 -0.0501 -0.2675
 2166DECAN   C221642   9.184   5.434   3.861 -0.3973 -0.4468  0.5179
 2166DECAN   C321643   9.181   5.456   4.013 -0.6451 -0.0155  0.4532
 2166DECAN   C421644   9.117   5.590   4.054 -0.2743  0.2394  0.2018
 2166DECAN   C521645   8.968   5.604   4.018 -0.3028 -0.5091  0.0002
 2166DECAN   C621646   8.907   5.736   4.071  0.3232 -0.2284  0.0317
 2166DECAN   C721647   8.994   5.860   4.048  0.0214 -0.0651 -0.2385
 2166DECAN   C821648   8.932   5.989   4.105  1.0688 -0.0681  0.9703
 2166DECAN   C921649   9.017   6.112   4.067  0.2826  0.1669 -0.0870
 2166DECAN  C1021650   9.053   6.207   4.183 -0.1000 -0.0431  0.2049
 2167DECAN   C121651   4.739   1.290   9.265 -0.0427  0.2378 -0.4748
 2167DECAN   C221652   4.758   1.442   9.283 -0.2094  0.1155  0.7716
 2167DECAN   C321653   4.903   1.491   9.275 -0.1546 -0.1048  0.4121
 2167DECAN   C421654   4.931   1.642   9.290 -0.1308 -0.0731  0.0549
 2167DECAN   C521655   5.066   1.704   9.252 -0.1466  0.1473  0.3544
 2167DECAN   C621656   5.083   1.853   9.287 -0.4479  0.3472 -0.3290
 2167DECAN   C721657   5.226   1.908   9.268 -0.4851  0.4035 -0.4495
 2167DECAN   C821658   5.235   2.057   9.306 -0.0686  0.2273  0.1738
 2167DECAN   C921659   5.265   2.090   9.453  0.1998  0.2618  0.1107
 2167DECAN  C1021660   5.205   2.227   9.491  0.0425  0.1383  0.3120
 2168DECAN   C121661   5.369   4.091   7.108  0.0989  0.0822  0.1177
 2168DECAN   C221662   5.336   4.084   6.958 -0.4537  0.3492  0.2232
 2168DECAN   C321663   5.205   4.145   6.903 -0.3820 -0.1201 -0.4910
 2168DECAN   C421664   5.084   4.097   6.985 -0.1293 -0.5181 -0.3465
 2168DECAN   C521665   4.951   4.113   6.910 -0.0007  0.5790 -0.3515
 2168DECAN   C621666   4.824   4.080   6.990  0.5534 -0.0005  0.2955
 2168DECAN   C721667   4.701   4.108   6.902  0.7594 -0.3088 -0.0937
 2168DECAN   C821668   4.569   4.083   6.977  0.4390  0.1415 -0.4910
 2168DECAN   C921669   4.452   4.154   6.907 -0.1558 -0.0812  0.2594
 2168DECAN  C1021670   4.322   4.161   6.990 -0.1290  0.5953  0.2479
 2169DECAN   C121671   8.348   4.953  12.352  0.1642  0.1498  0.2374
 2169DECAN   C221672   8.247   5.062  12.391 -0.0900  0.0920 -0.2567
 2169DECAN   C321673   8.257   5.099  12.540  0.7141 -0.0410 -0.2754
 2169DECAN   C421674   8.235   4.972  12.625 -0.2858  0.2249 -0.1299
 2169DECAN   C521675   8.217   4.992  12.777 -0.0503 -0.3685 -0.0250
 2169DECAN   C621676   8.091   5.065  12.825 -0.0588 -0.2081 -0.2870
 2169DECAN   C721677   8.066   5.198  12.751 -0.6464 -0.2942 -0.2484
 2169DECAN   C821678   7.926   5.253  12.787 -0.2878  0.2863  0.2864
 2169DECAN   C921679   7.866   5.339  12.674 -0.0442  0.4370  0.2720
 2169DECAN  C1021680   7.943   5.467  12.638  0.6549 -0.0466  0.0250
 2170DECAN   C121681   9.737   7.724  11.555  0.1085 -0.2517  0.3384
 2170DECAN   C221682   9.660   7.591  11.564 -0.4757  0.0378 -0.3289
 2170DECAN   C321683   9.538   7.609  11.657  0.0842  0.0828  0.4054
 2170DECAN   C421684   9.447   7.486  11.667  0.2608 -0.1045 -0.2244
 2170DECAN   C521685   9.521   7.360  11.717 -0.3395 -0.3776 -0.0177
 2170DECAN   C621686   9.421   7.253  11.767 -0.6602  0.1272  0.4327
 2170DECAN   C721687   9.328   7.193  11.661  0.4950 -0.0164 -0.5190
 2170DECAN   C821688   9.245   7.086  11.735  0.5995  0.0620 -0.2886
 2170DECAN   C921689   9.138   7.023  11.644  0.4214 -0.3694  0.2142
 2170DECAN  C1021690   9.023   6.942  11.706 -0.1892  0.2768 -0.0527
 2171DECAN   C121691   8.556   4.914  14.090 -0.0406  0.1480 -0.0416
 2171DECAN   C221692   8.439   4.870  13.999  0.1464 -0.1998 -0.1155
 2171DECAN   C321693   8.406   4.720  14.009  0.1162 -0.1760  0.1714
 2171DECAN   C421694   8.317   4.692  13.886 -0.6879  0.1140  0.6860
 2171DECAN   C521695   8.289   4.544  13.851 -0.5451  0.2403  0.0422
 2171DECAN   C621696   8.202   4.484  13.962  0.1055 -0.3190  0.2500
 2171DECAN   C721697   8.077   4.571  13.985  0.3973  0.1678  0.0044
 2171DECAN   C821698   8.012   4.534  14.119  0.3061 -0.0773 -0.1069
 2171DECAN   C921699   7.866   4.583  14.127  0.1901 -0.4518  0.1049
 2171DECAN  C1021700   7.786   4.502  14.023  0.1171 -0.2786  0.0259
 2172DECAN   C121701   4.611   2.541  14.179  0.5823  0.2112  0.0506
 2172DECAN   C221702   4.641   2.402  14.119 -0.8999 -0.1217  0.0349
 2172DECAN   C321703   4.601   2.279  14.203 -0.4143 -0.3362 -0.0448
 2172DECAN   C421704   4.582   2.145  14.130 -0.2737 -0.5049  0.2259
 2172DECAN   C521705   4.571   2.020  14.220  0.2964 -0.5360  0.2551
 2172DECAN   C621706   4.545   1.891  14.140  0.1892 -0.1470 -0.3440
 2172DECAN   C721707   4.560   1.764  14.225 -0.9660  0.0805  0.2262
 2172DECAN   C821708   4.582   1.644  14.131 -0.1591 -0.0548  0.5747
 2172DECAN   C921709   4.537   1.508  14.190 -0.1204 -0.1000  0.4991
 2172DECAN  C1021710   4.556   1.384  14.101 -0.2545  0.1644  0.0985
 2173DECAN   C121711   6.259   6.402   3.955 -0.4805  0.3518  0.0477
 2173DECAN   C221712   6.201   6.295   3.860  0.4260 -0.3393  0.2500
 2173DECAN   C321713   6.121   6.183   3.929  0.1279 -0.2970 -0.0240
 2173DECAN   C421714   6.000   6.237   4.006 -0.1430 -0.3054 -0.4389
 2173DECAN   C521715   5.940   6.143   4.113 -0.8939  0.4929 -0.1472
 2173DECAN   C621716   5.890   6.011   4.053  0.4144  0.0510 -0.3017
 2173DECAN   C721717   5.787   6.026   3.939  0.1984 -0.3401 -0.1568
 2173DECAN   C821718   5.716   5.897   3.894 -0.3086 -0.0903 -0.0807
 2173DECAN   C921719   5.815   5.786   3.854  0.1748  0.3305 -0.0555
 2173DECAN  C1021720   5.757   5.644   3.838 -0.1260  0.3661  0.6831
 2174DECAN   C121721   9.181   9.623  12.854  0.0371  0.1333  0.1839
 2174DECAN   C221722   9.043   9.645  12.918  0.0423 -0.0732  0.2634
 2174DECAN   C321723   8.920   9.612  12.832  0.1071 -0.4291  0.3029
 2174DECAN   C421724   8.916   9.465  12.787 -0.0556 -0.5639  0.7574
 2174DECAN   C521725   9.043   9.408  12.720 -0.1505  0.0280  0.0730
 2174DECAN   C621726   9.026   9.279  12.638 -0.2603  0.2129 -0.1989
 2174DECAN   C721727   9.160   9.238  12.573 -0.3397 -0.3694 -0.0025
 2174DECAN   C821728   9.160   9.102  12.501  0.2389 -0.6492  0.5168
 2174DECAN   C921729   9.293   9.031  12.472  0.5983  0.4016 -0.4793
 2174DECAN  C1021730   9.279   8.926  12.359 -0.2472 -0.2798  0.2442
 2175DECAN   C121731   2.673   3.810  13.972 -0.3316 -0.2041 -0.4046
 2175DECAN   C221732   2.657   3.707  13.858  0.2250  0.0657 -0.7287
 2175DECAN   C321733   2.515   3.673  13.810 -0.2661  0.0242  0.7076
 2175DECAN   C421734   2.506   3.544  13.727 -0.1290  0.7483 -0.4531
 2175DECAN   C521735   2.599   3.531  13.605  0.6525  0.3613  0.1730
 2175DECAN   C621736   2.547   3.588  13.471 -0.3532 -0.5363  0.1569
 2175DECAN   C721737   2.497   3.734  13.468  0.1966 -0.3476  0.0254
 2175DECAN   C821738   2.437   3.778  13.334  0.0411  0.0685  0.2312
 2175DECAN   C921739   2.524   3.809  13.211  0.2430  0.1874  0.4040
 2175DECAN  C1021740   2.441   3.823  13.082  0.2974 -0.5678  0.2792
 2176DECAN   C121741  10.063   6.180   7.021  0.2023  0.0545  0.7011
 2176DECAN   C221742  10.178   6.093   6.967 -0.4870 -0.5230  0.1375
 2176DECAN   C321743  10.131   5.958   6.910 -0.0105 -0.7479  0.2781
 2176DECAN   C421744  10.244   5.872   6.849  0.5174 -0.2540  0.5522
 2176DECAN   C521745  10.191   5.744   6.783 -0.0450  0.2857 -0.0548
 2176DECAN   C621746  10.285   5.675   6.683 -0.3115 -0.3610  0.1339
 2176DECAN   C721747  10.315   5.763   6.560  0.3741 -0.1825  0.4256
 2176DECAN   C821748  10.411   5.703   6.455 -0.3851  0.1011 -0.4387
 2176DECAN   C921749  10.362   5.571   6.393 -0.4806  0.0890 -0.3394
 2176DECAN  C1021750  10.459   5.520   6.285 -0.0633 -0.1382  0.1381
 2177DECAN   C121751   5.011   8.045   9.362  0.4252  0.1212 -0.3091
 2177DECAN   C221752   4.927   8.161   9.306  0.0610 -0.3197 -0.6935
 2177DECAN   C321753   4.979   8.302   9.342 -0.8632 -0.1128 -0.1320
 2177DECAN   C421754   5.111   8.341   9.274 -0.3904 -0.5028  0.5508
 2177DECAN   C521755   5.154   8.484   9.311  0.0396 -0.4953  0.0260
 2177DECAN   C621756   5.181   8.503   9.462 -0.0535 -0.0737 -0.0114
 2177DECAN   C721757   5.259   8.634   9.482  0.2326 -0.3556  0.7224
 2177DECAN   C821758   5.406   8.638   9.435  0.0477 -0.5968  0.1170
 2177DECAN   C921759   5.474   8.771   9.471 -0.1800 -0.5123  0.2338
 2177DECAN  C1021760   5.624   8.773   9.437 -0.1243  0.6317  0.4716
 2178DECAN   C121761   3.830   7.008   9.407 -0.1671  0.1327 -0.3964
 2178DECAN   C221762   3.796   7.124   9.311 -0.4347  0.5419  0.1884
 2178DECAN   C321763   3.893   7.243   9.325 -0.1258  0.3614 -0.3666
 2178DECAN   C421764   3.866   7.356   9.224  0.4022  0.4322 -0.4306
 2178DECAN   C521765   3.973   7.466   9.229  0.1782  0.6236  0.4369
 2178DECAN   C621766   3.952   7.588   9.137 -0.1432 -0.3124 -0.7413
 2178DECAN   C721767   4.071   7.684   9.151 -0.1921 -0.3069 -0.3658
 2178DECAN   C821768   4.072   7.808   9.059 -0.3491  0.3629  0.5205
 2178DECAN   C921769   4.215   7.866   9.053  0.1919 -1.0001 -0.1696
 2178DECAN  C1021770   4.227   7.976   8.946 -0.3831 -0.4963  0.2742
 2179DECAN   C121771   5.997   7.658   8.397  0.4242  0.5712 -0.0000
 2179DECAN   C221772   6.010   7.808   8.369 -0.0244  0.5054 -0.5730
 2179DECAN   C321773   6.118   7.854   8.269 -0.3386  0.7324 -0.8088
 2179DECAN   C421774   6.261   7.854   8.326 -0.4602  0.5669 -0.5066
 2179DECAN   C521775   6.380   7.872   8.230 -0.1745  0.7460 -0.1225
 2179DECAN   C621776   6.518   7.863   8.298 -0.0597 -0.0844 -0.4589
 2179DECAN   C721777   6.640   7.855   8.204  0.2066  0.5898 -0.1725
 2179DECAN   C821778   6.767   7.833   8.287  0.2902  0.2469 -0.3893
 2179DECAN   C921779   6.790   7.928   8.406 -0.2094  0.1121 -0.1834
 2179DECAN  C1021780   6.934   7.912   8.459 -0.3653 -0.5526  0.0521
 2180DECAN   C121781   5.144   3.456  12.956  0.2221 -0.4450  0.2332
 2180DECAN   C221782   5.264   3.543  12.913 -0.2489  0.1510  0.1123
 2180DECAN   C321783   5.381   3.545  13.012  0.2153 -0.7202 -0.4070
 2180DECAN   C421784   5.498   3.638  12.973 -0.3179  0.1595  0.0491
 2180DECAN   C521785   5.597   3.652  13.090 -0.2992 -0.2272  0.0824
 2180DECAN   C621786   5.728   3.729  13.066 -0.2445 -0.3668 -0.0671
 2180DECAN   C721787   5.818   3.736  13.191  0.2097  0.1061 -0.4202
 2180DECAN   C821788   5.926   3.844  13.172  0.1600  0.2074 -0.1330
 2180DECAN   C921789   5.856   3.981  13.165  0.4535  0.3676  0.0283
 2180DECAN  C1021790   5.753   4.000  13.052  0.7352 -0.5704 -0.4019
 2181DECAN   C121791   6.913   0.338   3.984 -0.2512 -0.5912 -0.2344
 2181DECAN   C221792   6.865   0.477   4.032  0.6163 -0.3767  0.0256
 2181DECAN   C321793   6.850   0.470   4.185  0.2120  0.0406  0.0043
 2181DECAN   C421794   6.758   0.570   4.259  0.3043  0.1485 -0.0257
 2181DECAN   C521795   6.609   0.578   4.222  0.3603 -0.2372 -0.3425
 2181DECAN   C621796   6.576   0.674   4.107 -0.1762  0.5913  0.4895
 2181DECAN   C721797   6.433   0.714   4.065 -0.2301 -0.1570 -0.0597
 2181DECAN   C821798   6.336   0.740   4.181 -0.5619 -0.0823 -0.3530
 2181DECAN   C921799   6.314   0.620   4.275  0.2218 -0.1366 -0.2396
 2181DECAN  C1021800   6.254   0.641   4.415  0.1502 -0.2027 -0.2604
 2182DECAN   C121801   5.756   0.836  11.603  0.2319  0.1039  0.3142
 2182DECAN   C221802   5.890   0.867  11.533  0.4951 -0.1565  0.7001
 2182DECAN   C321803   5.940   1.011  11.550  0.4181 -0.1191  0.6075
 2182DECAN   C421804   6.055   1.048  11.455 -0.3221  0.2668 -0.1512
 2182DECAN   C521805   6.148   1.152  11.518 -0.2122  0.0536  0.0410
 2182DECAN   C621806   6.239   1.229  11.420  0.1643  0.1226  0.4422
 2182DECAN   C721807   6.317   1.348  11.479  0.1245  0.3034  0.1343
 2182DECAN   C821808   6.445   1.383  11.400  0.0704  0.0018 -0.0871
 2182DECAN   C921809   6.540   1.262  11.411 -0.2367 -0.2090  0.3209
 2182DECAN  C1021810   6.666   1.284  11.324 -0.5041 -0.1530 -0.0555
 2183DECAN   C121811   7.229   3.524  14.067 -0.6561 -0.1937  0.1829
 2183DECAN   C221812   7.227   3.481  13.919  0.0428  0.8252 -0.1344
 2183DECAN   C321813   7.371   3.441  13.880  0.2164  0.6001  0.7183
 2183DECAN   C421814   7.373   3.371  13.743  0.2018  0.9089  0.5593
 2183DECAN   C521815   7.504   3.296  13.717 -0.1229  0.4991  0.0785
 2183DECAN   C621816   7.507   3.222  13.582  0.2446  0.1233  0.2869
 2183DECAN   C721817   7.632   3.147  13.533 -0.1994 -0.1266 -0.4916
 2183DECAN   C821818   7.757   3.235  13.521 -0.3441  0.1257 -0.1690
 2183DECAN   C921819   7.888   3.154  13.524 -0.2364  0.2915 -0.3416
 2183DECAN  C1021820   8.017   3.238  13.526 -0.1852  0.2070 -0.1485
 2184DECAN   C121821   2.418   1.718   4.511 -0.4774  0.7162  0.5374
 2184DECAN   C221822   2.403   1.777   4.370 -0.0439 -0.1988  0.1048
 2184DECAN   C321823   2.427   1.670   4.261  0.3935  0.1759 -0.1721
 2184DECAN   C421824   2.406   1.744   4.128  0.0240  0.4139  0.0191
 2184DECAN   C521825   2.379   1.651   4.009  0.1280 -0.0736  0.3716
 2184DECAN   C621826   2.501   1.566   3.967  0.0259 -0.0010 -0.0839
 2184DECAN   C721827   2.523   1.434   4.044 -0.2305 -0.1164 -0.2053
 2184DECAN   C821828   2.665   1.379   4.019 -0.0139  0.2827  0.1267
 2184DECAN   C921829   2.689   1.270   4.126  0.1572  0.1449 -0.0521
 2184DECAN  C1021830   2.614   1.138   4.101  0.4245 -0.0528  0.1790
 2185DECAN   C121831   8.162   6.028   6.810 -0.1276  0.2711 -0.4343
 2185DECAN   C221832   8.185   5.877   6.788 -0.3064  0.1460  0.2187
 2185DECAN   C321833   8.204   5.836   6.641  0.9800  0.1849  0.3568
 2185DECAN   C421834   8.204   5.687   6.605 -0.0213  0.3480 -0.3773
 2185DECAN   C521835   8.068   5.620   6.575 -0.0088  0.1946 -0.0950
 2185DECAN   C621836   8.005   5.658   6.440 -0.2771 -0.3373 -0.1214
 2185DECAN   C721837   7.877   5.576   6.418 -0.3463 -0.2287 -0.1191
 2185DECAN   C821838   7.817   5.577   6.276 -0.0181 -0.2566 -0.2583
 2185DECAN   C921839   7.711   5.466   6.268  0.1192 -0.4106  0.0457
 2185DECAN  C1021840   7.650   5.436   6.130 -0.4853  0.2260  0.1714
 2186DECAN   C121841   4.912   4.167   9.202 -0.4587 -0.4736  0.0021
 2186DECAN   C221842   5.037   4.102   9.265 -0.1576  0.0138 -0.0882
 2186DECAN   C321843   5.146   4.197   9.317  0.2805 -0.1776 -0.6458
 2186DECAN   C421844   5.247   4.108   9.393  0.1118 -0.1263 -0.3576
 2186DECAN   C521845   5.184   3.998   9.479 -0.1714  0.5671  0.3350
 2186DECAN   C621846   5.088   3.907   9.398  0.3816  0.4980 -0.2530
 2186DECAN   C721847   5.021   3.800   9.486 -0.1175  0.8766 -0.1642
 2186DECAN   C821848   4.913   3.849   9.584 -0.2688  0.1919  0.0197
 2186DECAN   C921849   4.815   3.738   9.623  0.4896 -0.1322  1.0596
 2186DECAN  C1021850   4.693   3.789   9.703  0.2198  0.0197  0.5575
 2187DECAN   C121851   9.462   4.951   6.777  0.4745  0.0839 -0.2346
 2187DECAN   C221852   9.401   5.086   6.734 -0.2007 -0.0513  0.2699
 2187DECAN   C321853   9.259   5.079   6.676 -0.1296  0.2156  0.0594
 2187DECAN   C421854   9.200   5.222   6.676  0.5300  0.4995 -1.1437
 2187DECAN   C521855   9.059   5.244   6.618  0.0378  0.1101 -0.1246
 2187DECAN   C621856   9.017   5.392   6.625  0.2964  0.1930 -0.2938
 2187DECAN   C721857   8.875   5.411   6.568  0.0768 -0.1978  0.1114
 2187DECAN   C821858   8.842   5.562   6.572 -0.1566 -0.2525  0.2830
 2187DECAN   C921859   8.696   5.571   6.526 -0.0076  0.5376 -0.0432
 2187DECAN  C1021860   8.672   5.522   6.382  0.0815 -0.2022  0.1909
 2188DECAN   C121861   5.792   3.550  14.549  0.0259 -0.2192 -0.5199
 2188DECAN   C221862   5.942   3.534  14.581 -0.0041 -0.0968 -0.3164
 2188DECAN   C321863   6.018   3.668  14.584 -0.0081 -0.0980 -0.1489
 2188DECAN   C421864   6.037   3.711  14.731 -0.0874  0.0205 -0.1736
 2188DECAN   C521865   5.908   3.770  14.792  0.0213  0.0627  0.0140
 2188DECAN   C621866   5.884   3.733  14.940 -0.0768  0.1279  0.0151
 2188DECAN   C721867   5.834   3.587  14.947 -0.0547  0.1176 -0.0431
 2188DECAN   C821868   5.816   3.532  15.089  0.3321 -0.2279 -0.1254
 2188DECAN   C921869   5.731   3.406  15.114  0.0065 -0.0941 -0.5450
 2188DECAN  C1021870   5.803   3.272  15.091  0.1373 -0.0712 -0.2785
 2189DECAN   C121871   6.044   4.921   8.106  0.0078 -0.4389 -0.7576
 2189DECAN   C221872   6.152   4.845   8.028  0.6525 -0.8377  0.4901
 2189DECAN   C321873   6.274   4.930   7.986  0.2277 -0.2921  0.3521
 2189DECAN   C421874   6.392   4.861   7.915  0.3245  0.2984 -0.0657
 2189DECAN   C521875   6.516   4.951   7.896  0.5557  0.0214  0.1282
 2189DECAN   C621876   6.632   4.869   7.837  0.1204 -0.5504  0.0549
 2189DECAN   C721877   6.748   4.967   7.808 -0.4563  0.0989 -0.0736
 2189DECAN   C821878   6.727   5.055   7.684  0.3752 -0.1084 -0.3639
 2189DECAN   C921879   6.811   5.183   7.667  0.7379 -0.1952  0.7293
 2189DECAN  C1021880   6.783   5.259   7.536  0.4643 -0.6047  0.5488
 2190DECAN   C121881   5.764   1.259   4.225  0.0164 -0.2112  0.4115
 2190DECAN   C221882   5.748   1.335   4.091  0.3395 -0.5111  0.2033
 2190DECAN   C321883   5.887   1.343   4.025  0.3262 -0.5951  0.1642
 2190DECAN   C421884   5.944   1.201   4.009 -0.2460 -0.8127  0.0305
 2190DECAN   C521885   6.094   1.207   3.975 -0.2396  0.1171  0.1892
 2190DECAN   C621886   6.181   1.268   4.086  0.0785  0.2610 -0.1360
 2190DECAN   C721887   6.332   1.238   4.077  0.1011  0.3544 -0.0737
 2190DECAN   C821888   6.413   1.301   4.191  0.1601  0.4514 -0.1685
 2190DECAN   C921889   6.556   1.246   4.181  0.0814  0.1492  0.3148
 2190DECAN  C1021890   6.564   1.095   4.152  0.3283  0.2228 -0.0103
 2191DECAN   C121891   9.123   7.801   9.705  0.2559  0.0092  0.0066
 2191DECAN   C221892   9.122   7.904   9.591  0.0678 -0.0414 -0.0373
 2191DECAN   C321893   9.244   7.997   9.608 -0.2772  0.5852 -0.8643
 2191DECAN   C421894   9.375   7.928   9.565  0.1888  1.0805 -0.2461
 2191DECAN   C521895   9.381   7.919   9.412  0.2237 -0.3440 -0.1695
 2191DECAN   C621896   9.442   8.043   9.345 -1.0223  0.1912 -0.3254
 2191DECAN   C721897   9.485   8.024   9.199 -0.4121  0.3681 -0.1723
 2191DECAN   C821898   9.557   7.889   9.182 -0.3967  0.2845  0.5459
 2191DECAN   C921899   9.448   7.782   9.203 -0.2090 -0.0606 -0.1968
 2191DECAN  C1021900   9.488   7.640   9.160  0.2162 -0.0017 -0.0012
 2192DECAN   C121901   7.334   7.030   7.108 -0.3220  0.0254  0.2183
 2192DECAN   C221902   7.358   6.892   7.172  0.0895  0.1063  0.2400
 2192DECAN   C321903   7.429   6.791   7.080  0.3458  0.2887  0.2355
 2192DECAN   C421904   7.487   6.668   7.152  0.3586  0.6213  0.7965
 2192DECAN   C521905   7.540   6.566   7.049 -0.4522  0.3194  0.6686
 2192DECAN   C621906   7.609   6.443   7.110 -0.0213  0.1328 -0.1789
 2192DECAN   C721907   7.649   6.320   7.026  0.0380 -0.3118  0.4877
 2192DECAN   C821908   7.719   6.210   7.108  0.3972 -0.2123  0.3161
 2192DECAN   C921909   7.793   6.117   7.012 -0.3058 -0.3495 -0.1004
 2192DECAN  C1021910   7.870   5.998   7.073 -0.4700 -0.4088 -0.0095
 2193DECAN   C121911   1.853   2.731  10.478  0.0616 -0.3916  0.2136
 2193DECAN   C221912   1.756   2.630  10.413 -0.5049  0.2163  0.1020
 2193DECAN   C321913   1.849   2.555  10.316  0.0181  0.1354  0.6619
 2193DECAN   C421914   1.774   2.436  10.252  0.6942  0.2608 -0.3912
 2193DECAN   C521915   1.639   2.464  10.184  0.5986 -0.2581 -0.4183
 2193DECAN   C621916   1.581   2.342  10.111  0.3910 -0.1343 -0.4602
 2193DECAN   C721917   1.593   2.361   9.959  0.1162 -0.2394 -0.4957
 2193DECAN   C821918   1.490   2.280   9.877  0.1362 -0.3173 -0.4435
 2193DECAN   C921919   1.541   2.266   9.732  0.5846  0.0415 -0.3267
 2193DECAN  C1021920   1.457   2.315   9.613  0.4017 -0.0764 -0.2488
 2194DECAN   C121921   7.320   8.345  13.799  0.0487  0.4833 -0.1012
 2194DECAN   C221922   7.421   8.317  13.912  0.2595  0.7575 -0.2201
 2194DECAN   C321923   7.362   8.343  14.051  0.7870  0.4255  0.0673
 2194DECAN   C421924   7.454   8.312  14.171  0.2317 -0.1871  0.3437
 2194DECAN   C521925   7.478   8.161  14.188  0.5917 -0.2612 -0.7396
 2194DECAN   C621926   7.596   8.131  14.282  0.2429  0.7800  0.0425
 2194DECAN   C721927   7.627   7.985  14.318 -1.0435  0.3633 -0.5285
 2194DECAN   C821928   7.687   7.911  14.197 -0.7411  0.6943 -0.5768
 2194DECAN   C921929   7.725   7.763  14.213  0.1071  0.9810  0.1657
 2194DECAN  C1021930   7.795   7.691  14.096 -0.4837  0.0067  0.3962
 2195DECAN   C121931   2.860   1.926  13.306 -0.4753 -0.4060  0.9464
 2195DECAN   C221932   2.985   1.880  13.228 -0.5457  0.3702  0.3602
 2195DECAN   C321933   3.052   1.989  13.143 -0.1093 -0.0334  0.1880
 2195DECAN   C421934   3.103   2.103  13.232 -0.2550 -0.0380  0.2763
 2195DECAN   C521935   3.196   2.053  13.345 -0.0011 -0.3028 -0.0477
 2195DECAN   C621936   3.235   2.174  13.432  0.1508  0.0816 -0.6435
 2195DECAN   C721937   3.325   2.285  13.375 -0.5034  0.7421 -0.3992
 2195DECAN   C821938   3.354   2.391  13.482 -0.0052  0.3165 -0.1094
 2195DECAN   C921939   3.373   2.536  13.433  0.0172  0.3024 -0.1423
 2195DECAN  C1021940   3.498   2.533  13.342  0.2966 -0.3437  0.2529
 2196DECAN   C121941   4.923  11.155  13.298 -0.6770 -0.1590 -0.0392
 2196DECAN   C221942   4.982  11.174  13.157  0.4646  0.1546  0.4684
 2196DECAN   C321943   5.070   0.056  13.152  0.1081  0.3890 -0.0282
 2196DECAN   C421944   5.166   0.088  13.036  0.2446 -0.2590 -0.0959
 2196DECAN   C521945   5.242   0.221  13.052 -0.0418 -0.1207  0.1072
 2196DECAN   C621946   5.160   0.349  13.076  0.1333  0.0518 -0.2179
 2196DECAN   C721947   5.239   0.480  13.095 -0.2146  0.1855  0.3344
 2196DECAN   C821948   5.326   0.475  13.222 -0.3774 -0.0048  0.4412
 2196DECAN   C921949   5.394   0.610  13.255 -0.1042 -0.0702  0.1582
 2196DECAN  C1021950   5.502   0.588  13.363  0.0490  0.7500  0.1748
 2197DECAN   C121951   6.380   0.936  12.288  0.3637 -0.1321  0.1717
 2197DECAN   C221952   6.503   0.928  12.380  0.3543  0.7140  0.2686
 2197DECAN   C321953   6.477   0.998  12.514 -0.3251 -0.1228  0.5809
 2197DECAN   C421954   6.365   0.929  12.595 -0.1757 -0.6015  0.3823
 2197DECAN   C521955   6.364   0.972  12.743  0.2178  0.2513  0.1426
 2197DECAN   C621956   6.244   0.921  12.825  0.1266  0.7900  0.3458
 2197DECAN   C721957   6.239   0.961  12.974 -0.0521 -0.4810  0.6911
 2197DECAN   C821958   6.187   1.101  13.011 -0.2713 -0.2767 -0.3765
 2197DECAN   C921959   6.107   1.113  13.142  0.4199  0.1203  0.0131
 2197DECAN  C1021960   6.065   1.258  13.172  0.2973  0.1166 -0.1374
 2198DECAN   C121961   9.288   7.708   5.585 -0.1023  0.0365 -0.1432
 2198DECAN   C221962   9.265   7.568   5.524  0.4175 -0.1230  0.0225
 2198DECAN   C321963   9.206   7.561   5.382  0.2772 -0.5032  0.0992
 2198DECAN   C421964   9.173   7.416   5.343 -0.1718 -0.3160 -0.2338
 2198DECAN   C521965   9.125   7.382   5.201 -0.0186 -0.3115 -0.2861
 2198DECAN   C621966   9.090   7.232   5.191  0.2201 -0.3930  0.0748
 2198DECAN   C721967   9.097   7.188   5.043 -0.2789 -0.7043  0.1420
 2198DECAN   C821968   9.084   7.040   5.005 -0.1720 -0.4916 -0.7430
 2198DECAN   C921969   9.105   7.014   4.855 -0.3281 -0.4633 -0.7695
 2198DECAN  C1021970   8.989   7.068   4.769 -0.1325  0.3816 -0.5043
 2199DECAN   C121971   2.221   9.601  13.701  0.0540  0.5231  0.1123
 2199DECAN   C221972   2.321   9.601  13.584  0.1187  0.0310  0.1646
 2199DECAN   C321973   2.458   9.543  13.623  0.0603 -0.1751  0.0660
 2199DECAN   C421974   2.548   9.566  13.500  0.5405  0.7670  0.5777
 2199DECAN   C521975   2.680   9.488  13.485  0.0688  0.1128 -0.3004
 2199DECAN   C621976   2.734   9.504  13.342  0.8524 -0.0384 -0.0300
 2199DECAN   C721977   2.762   9.653  13.319 -0.7946  0.2786 -0.0887
 2199DECAN   C821978   2.801   9.685  13.173 -0.4591  0.6753  0.0841
 2199DECAN   C921979   2.886   9.812  13.166 -0.4631  0.6782  0.0803
 2199DECAN  C1021980   2.912   9.857  13.021 -0.2217  0.5593  0.0865
 2200DECAN   C121981   7.345   5.170  13.648  0.0004 -0.0150 -0.0552
 2200DECAN   C221982   7.342   5.315  13.598  0.2639  0.1268  0.3336
 2200DECAN   C321983   7.451   5.410  13.651 -0.3280  1.0395 -0.0619
 2200DECAN   C421984   7.593   5.361  13.618 -0.4591  0.3551  0.3830
 2200DECAN   C521985   7.698   5.463  13.668  0.1481 -0.0489 -0.0504
 2200DECAN   C621986   7.846   5.420  13.662  0.1929  0.0693  0.1925
 2200DECAN   C721987   7.935   5.545  13.675  0.2772 -0.0172  0.4477
 2200DECAN   C821988   7.938   5.613  13.813  0.6117  0.2715  0.2984
 2200DECAN   C921989   8.016   5.746  13.821  0.0754  0.5604  0.7365
 2200DECAN  C1021990   8.167   5.741  13.792 -0.2268  0.4317 -0.8726
 2201DECAN   C121991   9.576   6.954   4.787  0.0447  0.6238  0.7437
 2201DECAN   C221992   9.527   7.091   4.737  0.2361  0.2118 -0.6106
 2201DECAN   C321993   9.641   7.195   4.726  0.7119 -0.2592 -0.1894
 2201DECAN   C421994   9.586   7.325   4.664  0.3420 -0.3670 -0.0911
 2201DECAN   C521995   9.546   7.326   4.515  0.0629 -0.2183 -0.0169
 2201DECAN   C621996   9.474   7.457   4.480 -0.7941 -0.7450 -0.2381
 2201DECAN   C721997   9.457   7.490   4.331 -0.3137 -0.2417 -0.1824
 2201DECAN   C821998   9.403   7.634   4.322 -0.3863 -0.2651 -0.1197
 2201DECAN   C921999   9.505   7.725   4.391 -0.0556 -0.4301 -0.3914
 2201DECAN  C1022000   9.645   7.729   4.327  0.2417  0.5976  0.2904
 2202DECAN   C122001   9.635   3.549  10.878  0.0210 -0.0654 -0.9725
 2202DECAN   C222002   9.587   3.413  10.930 -0.5042  0.2857 -0.5294
 2202DECAN   C322003   9.671   3.290  10.892 -0.1463  0.3377  0.0862
 2202DECAN   C422004   9.600   3.163  10.943 -0.1492  0.3534  0.1215
 2202DECAN   C522005   9.452   3.157  10.901 -0.1527  0.6289  0.0978
 2202DECAN   C622006   9.368   3.028  10.907  0.1981  0.4170  0.5240
 2202DECAN   C722007   9.237   3.052  10.830  0.4066 -0.0251  0.0277
 2202DECAN   C822008   9.129   2.945  10.857 -0.2248  0.4801 -0.4864
 2202DECAN   C922009   9.193   2.806  10.840 -0.1808  0.4016  0.3032
 2202DECAN  C1022010   9.292   2.768  10.952 -0.3441 -0.2729  0.2226
 2203DECAN   C122011   9.796   6.310   7.299 -0.0220 -0.2895 -0.2236
 2203DECAN   C222012   9.862   6.366   7.426 -0.9075 -0.0293  0.1264
 2203DECAN   C322013   9.779   6.459   7.517 -0.7051 -0.1496  0.4357
 2203DECAN   C422014   9.863   6.536   7.620  0.0689 -0.2603 -0.0961
 2203DECAN   C522015   9.915   6.674   7.574 -0.0458 -0.2776 -0.2741
 2203DECAN   C622016   9.798   6.769   7.539 -0.1451 -0.3354 -0.1007
 2203DECAN   C722017   9.815   6.870   7.424 -0.1245 -0.4167 -0.1694
 2203DECAN   C822018   9.687   6.951   7.398  0.1477  0.0137 -0.1735
 2203DECAN   C922019   9.652   7.047   7.513 -0.4726 -0.3598 -0.0460
 2203DECAN  C1022020   9.538   7.149   7.497  0.1558  0.3160 -0.2961
 2204DECAN   C122021   8.570   0.036  13.222  0.1086 -0.1761 -0.2928
 2204DECAN   C222022   8.592  11.177  13.334 -0.1689 -0.3384 -0.3888
 2204DECAN   C322023   8.722  11.214  13.407 -0.4160 -0.0906 -0.0652
 2204DECAN   C422024   8.770  11.105  13.504  0.6684  0.6357  0.2431
 2204DECAN   C522025   8.777  10.962  13.447 -0.3006  0.4339  0.5971
 2204DECAN   C622026   8.798  10.855  13.556 -0.0540 -0.2957 -0.1524
 2204DECAN   C722027   8.788  10.708  13.512  0.1189 -0.6242  0.8759
 2204DECAN   C822028   8.912  10.688  13.423 -0.3254  0.0707  0.0879
 2204DECAN   C922029   8.929  10.776  13.297  0.4773 -0.1218  0.0527
 2204DECAN  C1022030   9.038  10.748  13.192 -0.0822 -0.4765 -0.4446
 2205DECAN   C122031   6.421   6.112  12.264 -0.2420 -0.1875 -0.5139
 2205DECAN   C222032   6.480   5.975  12.226 -0.1836 -0.2719 -0.1273
 2205DECAN   C322033   6.484   5.975  12.072 -0.1877 -0.1352 -0.1268
 2205DECAN   C422034   6.598   5.886  12.018 -0.1560  0.1562 -0.5499
 2205DECAN   C522035   6.619   5.878  11.866  0.2254  0.0612 -0.4939
 2205DECAN   C622036   6.767   5.847  11.837  0.3389  0.0277  0.0977
 2205DECAN   C722037   6.795   5.796  11.694 -0.3023 -0.2344  0.0606
 2205DECAN   C822038   6.716   5.673  11.645  0.3602 -0.8307  0.4704
 2205DECAN   C922039   6.772   5.622  11.511  0.4318 -0.1755  0.2476
 2205DECAN  C1022040   6.879   5.514  11.540  0.5398 -0.1963 -0.2212
 2206DECAN   C122041   6.305   3.493  13.054 -0.3120  0.3961 -0.1152
 2206DECAN   C222042   6.373   3.585  13.157  0.1768 -0.2194  0.1153
 2206DECAN   C322043   6.469   3.672  13.074 -0.0119 -0.3595 -0.2519
 2206DECAN   C422044   6.587   3.696  13.171 -0.5118  0.0175  0.2750
 2206DECAN   C522045   6.667   3.566  13.193  0.1135  0.3681  0.0780
 2206DECAN   C622046   6.717   3.478  13.076 -0.2840  0.3221 -0.0576
 2206DECAN   C722047   6.813   3.363  13.109 -0.2291  0.3657 -0.0674
 2206DECAN   C822048   6.875   3.295  12.985  0.2261 -0.0425  0.3790
 2206DECAN   C922049   7.010   3.231  13.021  0.1526 -0.2348  0.3106
 2206DECAN  C1022050   7.078   3.144  12.914 -0.0948  0.0788 -0.1008
 2207DECAN   C122051   6.061   7.683  10.661 -0.3240  0.3858  0.1146
 2207DECAN   C222052   6.035   7.809  10.575  0.1784  0.0791 -0.5006
 2207DECAN   C322053   6.149   7.912  10.576  0.0118  0.2644 -0.4939
 2207DECAN   C422054   6.122   8.028  10.479 -0.3745  0.4473 -0.1689
 2207DECAN   C522055   6.228   8.139  10.471  0.0101  0.0937 -0.0053
 2207DECAN   C622056   6.208   8.249  10.366 -0.1587 -0.5419 -0.6482
 2207DECAN   C722057   6.340   8.326  10.340 -0.5364  0.1786 -0.4704
 2207DECAN   C822058   6.447   8.259  10.252 -0.2304  0.2262 -0.1360
 2207DECAN   C922059   6.425   8.246  10.100  0.4969 -0.3643 -0.1976
 2207DECAN  C1022060   6.540   8.311  10.022  0.2382  0.1887 -0.1238
 2208DECAN   C122061   8.025   4.339  11.798 -0.0051  0.6232 -0.1986
 2208DECAN   C222062   7.913   4.236  11.775  0.3896  0.1937 -0.2137
 2208DECAN   C322063   7.835   4.274  11.648  0.1039  0.2056 -0.0348
 2208DECAN   C422064   7.757   4.407  11.654  0.3397  0.3180  0.5671
 2208DECAN   C522065   7.629   4.402  11.740 -0.1584 -0.1118 -0.1882
 2208DECAN   C622066   7.529   4.291  11.703 -0.5254  0.5611 -1.2728
 2208DECAN   C722067   7.420   4.280  11.812  0.4497  0.5620 -0.2834
 2208DECAN   C822068   7.459   4.180  11.923 -0.0273  0.5450 -0.1300
 2208DECAN   C922069   7.371   4.188  12.049  0.3366 -0.2031  0.1752
 2208DECAN  C1022070   7.406   4.082  12.156 -0.7715 -0.3979  0.3581
 2209DECAN   C122071   0.874   8.384   9.442 -0.6101 -0.1895 -0.4862
 2209DECAN   C222072   0.829   8.499   9.350 -0.5241 -0.0217 -0.3192
 2209DECAN   C322073   0.936   8.551   9.252  0.1163 -0.1055  0.3283
 2209DECAN   C422074   1.047   8.616   9.336 -0.0344  0.3963  0.1433
 2209DECAN   C522075   0.986   8.740   9.404 -0.2609  0.2425  0.2186
 2209DECAN   C622076   1.050   8.867   9.347  0.1246 -0.0973 -0.1105
 2209DECAN   C722077   1.020   8.983   9.444 -0.2397 -0.2263 -0.0701
 2209DECAN   C822078   1.089   9.114   9.402 -0.1742 -0.1307  0.3358
 2209DECAN   C922079   1.061   9.228   9.502  0.2245  0.3651 -0.1122
 2209DECAN  C1022080   1.116   9.208   9.645 -0.4722 -0.5875  0.0335
 2210DECAN   C122081   7.567   8.485   4.007 -0.2472 -0.6110 -0.1132
 2210DECAN   C222082   7.709   8.425   4.014  0.2939  0.6115 -0.2132
 2210DECAN   C322083   7.766   8.350   3.892 -0.0125 -0.1773  0.1176
 2210DECAN   C422084   7.919   8.338   3.886 -0.0169 -0.2144  0.0802
 2210DECAN   C522085   7.977   8.248   3.996  0.5583  0.2885  0.1949
 2210DECAN   C622086   7.920   8.105   4.005  0.2835  0.3900  0.0681
 2210DECAN   C722087   7.995   8.036   4.121  0.7342  0.3252 -0.2561
 2210DECAN   C822088   7.937   8.066   4.260  0.1512 -0.4981 -0.3136
 2210DECAN   C922089   8.016   8.009   4.379 -0.5421  0.2721  0.5389
 2210DECAN  C1022090   7.948   8.041   4.513 -0.3453  0.1562  0.6661
 2211DECAN   C122091   7.815   4.251   4.938 -0.3359  0.2644  0.2562
 2211DECAN   C222092   7.693   4.159   4.926 -0.3319  0.3619 -0.5477
 2211DECAN   C322093   7.725   4.038   4.835 -0.1413  0.2798 -0.3710
 2211DECAN   C422094   7.622   3.924   4.834 -0.2908  0.4085 -0.0616
 2211DECAN   C522095   7.644   3.810   4.935  0.4513  0.0813 -0.5847
 2211DECAN   C622096   7.569   3.677   4.911 -0.7083  0.5625  0.2804
 2211DECAN   C722097   7.627   3.608   4.786 -0.2667  0.3928  0.5774
 2211DECAN   C822098   7.604   3.455   4.783  0.9138  0.2202 -0.3465
 2211DECAN   C922099   7.611   3.400   4.639 -0.2606 -0.5673 -0.1162
 2211DECAN  C1022100   7.551   3.260   4.620 -0.8425 -0.3175 -0.1245
 2212DECAN   C122101   4.762   4.969   8.319 -0.3754  0.0223 -0.2152
 2212DECAN   C222102   4.891   4.897   8.276 -0.0076  0.2715  0.4512
 2212DECAN   C322103   5.019   4.979   8.248  0.0071  0.2067  0.3251
 2212DECAN   C422104   5.152   4.908   8.214  0.2030  0.7918 -0.1387
 2212DECAN   C522105   5.156   4.829   8.082  0.2127  0.6675 -0.0652
 2212DECAN   C622106   5.301   4.777   8.066  0.0170  0.0894  0.0050
 2212DECAN   C722107   5.416   4.877   8.049 -0.1393  0.2671 -0.0195
 2212DECAN   C822108   5.545   4.812   7.995 -0.1489  0.1688  0.0740
 2212DECAN   C922109   5.658   4.916   7.979  0.1460 -0.1642 -0.0241
 2212DECAN  C1022110   5.651   4.981   7.839 -0.3277 -0.2045 -0.0220
 2213DECAN   C122111  10.285   5.735  11.179  0.2269 -0.1409  0.7888
 2213DECAN   C222112  10.319   5.676  11.041  0.1183 -0.2319  0.8002
 2213DECAN   C322113  10.436   5.756  10.981 -0.3540 -0.4525 -0.4383
 2213DECAN   C422114  10.575   5.742  11.047 -0.2400  0.4823 -0.4611
 2213DECAN   C522115  10.630   5.609  10.993 -0.6469 -0.1560  0.6544
 2213DECAN   C622116  10.765   5.582  11.063 -0.2750  0.4844  0.1866
 2213DECAN   C722117  10.872   5.684  11.020 -0.0178  0.1161 -0.0498
 2213DECAN   C822118  11.014   5.650  11.072  0.2376 -0.3843 -1.0410
 2213DECAN   C922119  11.023   5.722  11.208 -0.2814 -0.5533 -0.9140
 2213DECAN  C1022120  11.136   5.668  11.297 -0.2638 -0.1918 -0.7152
 2214DECAN   C122121   7.423   7.183  12.440  0.0481  0.1324  0.5972
 2214DECAN   C222122   7.555   7.131  12.379 -0.3863  0.2362 -0.4569
 2214DECAN   C322123   7.527   7.020  12.277  0.0442  0.2630 -0.6074
 2214DECAN   C422124   7.648   6.935  12.233 -0.5673 -0.5723 -0.6997
 2214DECAN   C522125   7.764   7.029  12.197 -0.8282  0.0791  0.1283
 2214DECAN   C622126   7.792   7.128  12.312 -0.1659 -0.2463  0.2519
 2214DECAN   C722127   7.932   7.191  12.322 -0.1923 -0.2045  0.3643
 2214DECAN   C822128   7.955   7.295  12.433 -0.1158  0.2397 -0.0642
 2214DECAN   C922129   8.078   7.385  12.407 -0.4362  0.6869 -0.0384
 2214DECAN  C1022130   8.138   7.441  12.537 -0.4248 -0.1812  0.3387
 2215DECAN   C122131   5.795   5.954   4.931 -0.2924  0.0922 -0.1558
 2215DECAN   C222132   5.910   5.988   5.028  0.2125  0.3993 -0.8533
 2215DECAN   C322133   6.025   6.063   4.959  0.4597  0.3010 -0.5556
 2215DECAN   C422134   6.131   6.104   5.062 -0.4092  0.7080  0.1820
 2215DECAN   C522135   6.220   6.218   5.010 -0.7857  0.8569 -0.1412
 2215DECAN   C622136   6.298   6.173   4.885 -0.1360 -0.2290  0.6428
 2215DECAN   C722137   6.391   6.287   4.839 -0.0577 -0.5663 -0.0341
 2215DECAN   C822138   6.505   6.322   4.936 -0.3531  0.1339  0.0658
 2215DECAN   C922139   6.584   6.450   4.903 -0.3918  0.2172  0.2992
 2215DECAN  C1022140   6.659   6.453   4.768 -0.1630  0.4624  0.4300
 2216DECAN   C122141   2.864   1.433   8.925  0.1843  0.1310  0.2154
 2216DECAN   C222142   2.875   1.559   8.838  0.2215  0.2771  0.4322
 2216DECAN   C322143   3.023   1.598   8.820  0.2407  0.0209  0.0310
 2216DECAN   C422144   3.058   1.724   8.740  0.5942 -0.0591  0.0561
 2216DECAN   C522145   3.209   1.746   8.721  0.5533  0.2134  0.0361
 2216DECAN   C622146   3.230   1.886   8.661 -0.0628  0.0370 -0.5951
 2216DECAN   C722147   3.380   1.919   8.649  0.0253 -0.2845 -0.3843
 2216DECAN   C822148   3.449   1.839   8.537 -0.4655 -0.1949 -0.7554
 2216DECAN   C922149   3.589   1.895   8.508 -0.5082  0.4121  0.1534
 2216DECAN  C1022150   3.670   1.799   8.419 -0.0731  0.8989  0.0147
 2217DECAN   C122151   9.909   0.193  11.828 -0.1800 -0.0353 -0.4772
 2217DECAN   C222152   9.896   0.072  11.922 -0.2473  0.1151 -0.2916
 2217DECAN   C322153   9.753   0.014  11.931 -0.1029 -0.2488 -0.3225
 2217DECAN   C422154   9.645   0.113  11.978 -0.2633 -0.3687 -0.4372
 2217DECAN   C522155   9.641   0.258  11.926  0.3693 -0.2604 -0.1896
 2217DECAN   C622156   9.546   0.353  12.003  0.5415 -0.1882 -0.0654
 2217DECAN   C722157   9.493   0.472  11.922  0.1976 -0.4228 -0.1875
 2217DECAN   C822158   9.601   0.563  11.860 -0.2723 -0.0653 -0.4906
 2217DECAN   C922159   9.699   0.492  11.765  0.7526  0.0809  0.4332
 2217DECAN  C1022160   9.782   0.602  11.697  0.0229  0.2438 -0.2111
 2218DECAN   C122161   1.724   2.156  10.996 -0.3493  0.3785  0.3745
 2218DECAN   C222162   1.637   2.118  11.118  0.1736 -0.2054  0.5709
 2218DECAN   C322163   1.521   2.213  11.154  0.3982  0.2329  0.1489
 2218DECAN   C422164   1.435   2.253  11.033  0.0961 -0.7289  0.0345
 2218DECAN   C522165   1.345   2.138  10.985 -0.5896 -0.3370  0.3641
 2218DECAN   C622166   1.229   2.180  10.894  0.1984 -0.0091 -0.5020
 2218DECAN   C722167   1.159   2.056  10.835 -0.0010  0.2547 -0.8302
 2218DECAN   C822168   1.072   1.963  10.921  0.4394  0.3591 -0.2604
 2218DECAN   C922169   0.943   2.023  10.979  0.0068 -0.0277 -0.8058
 2218DECAN  C1022170   0.836   1.921  11.023  0.4098 -0.1333 -0.0557
 2219DECAN   C122171   8.998   1.418   4.997  0.3004  0.3143  0.0206
 2219DECAN   C222172   9.029   1.326   4.878 -0.1094  0.1907  0.0083
 2219DECAN   C322173   9.134   1.214   4.897 -0.3506 -0.0253  0.0692
 2219DECAN   C422174   9.102   1.114   5.010 -0.0232  0.0977  0.2720
 2219DECAN   C522175   9.204   0.999   5.020  0.2365  0.3177  0.1470
 2219DECAN   C622176   9.205   0.915   5.148 -0.2740  0.2478  0.1056
 2219DECAN   C722177   9.329   0.824   5.152 -0.1869  0.3373 -0.5514
 2219DECAN   C822178   9.351   0.754   5.287  0.1857  0.7217 -0.4102
 2219DECAN   C922179   9.479   0.668   5.282 -0.1463  0.2074 -0.2107
 2219DECAN  C1022180   9.483   0.538   5.364  0.1841  0.1646 -0.2964
 2220DECAN   C122181   5.800   1.772   4.048 -0.4267 -0.0248 -0.0157
 2220DECAN   C222182   5.744   1.870   4.154  0.1558  0.0885  0.1905
 2220DECAN   C322183   5.640   1.815   4.252  0.0401 -0.1210 -0.0476
 2220DECAN   C422184   5.625   1.921   4.362 -0.3322 -0.7484  0.5183
 2220DECAN   C522185   5.544   1.883   4.488 -0.1971 -0.4973  0.6815
 2220DECAN   C622186   5.519   1.998   4.588  0.0753  0.1973 -0.0362
 2220DECAN   C722187   5.435   1.974   4.715 -0.1449  0.2156 -0.1784
 2220DECAN   C822188   5.424   2.111   4.785  0.0594 -0.0036  0.2842
 2220DECAN   C922189   5.562   2.172   4.816  0.0410  0.1643  0.0493
 2220DECAN  C1022190   5.635   2.116   4.940 -0.3379 -0.7103 -0.1168
 2221DECAN   C122191  10.589   4.399  14.134 -0.5222 -0.2258  0.2224
 2221DECAN   C222192  10.555   4.259  14.189  0.0920 -0.5305 -0.1616
 2221DECAN   C322193  10.463   4.170  14.104 -0.1234  0.1182 -0.6165
 2221DECAN   C422194  10.380   4.074  14.193 -0.0323  0.2749 -0.3641
 2221DECAN   C522195  10.244   4.023  14.143 -0.0342  0.0793 -0.1563
 2221DECAN   C622196  10.152   3.937  14.232 -0.0150  0.0148 -0.1977
 2221DECAN   C722197  10.214   3.802  14.274  0.6280  0.2658 -0.3315
 2221DECAN   C822198  10.276   3.725  14.156  0.1101 -0.4952 -0.1112
 2221DECAN   C922199  10.173   3.654  14.066 -0.1409 -0.3592  0.0686
 2221DECAN  C1022200  10.240   3.587  13.945  0.0721 -0.3775  0.1978
 2222DECAN   C122201  10.979   9.927  11.234  0.3280 -0.1312 -0.1926
 2222DECAN   C222202  11.043  10.055  11.178 -0.2478  0.0417 -0.4575
 2222DECAN   C322203  10.956  10.176  11.216 -0.1648 -0.0204 -0.0738
 2222DECAN   C422204  10.816  10.163  11.154 -0.2183  0.1827  0.0016
 2222DECAN   C522205  10.721  10.273  11.204 -0.2137  0.3531 -0.3606
 2222DECAN   C622206  10.729  10.272  11.358 -0.0966  0.1893 -0.3680
 2222DECAN   C722207  10.670  10.143  11.416  0.6771  0.0715  0.1728
 2222DECAN   C822208  10.742  10.095  11.543  0.0732 -0.5648  0.2832
 2222DECAN   C922209  10.746  10.197  11.659 -0.3183  0.3418 -0.4934
 2222DECAN  C1022210  10.837  10.321  11.644 -0.0364  0.2740  0.5902
 2223DECAN   C122211   1.786   4.565   6.135 -0.1149 -0.3561 -0.0637
 2223DECAN   C222212   1.670   4.656   6.090 -0.0682 -0.0309  0.4664
 2223DECAN   C322213   1.702   4.806   6.100  0.1492 -0.0144 -0.4131
 2223DECAN   C422214   1.823   4.864   6.023  0.1522  0.0388 -0.3681
 2223DECAN   C522215   1.872   5.008   6.046  0.0554  0.0513 -0.2372
 2223DECAN   C622216   1.999   5.057   5.974  0.0014  0.0899 -0.3062
 2223DECAN   C722217   2.046   5.195   6.023 -0.2658  0.1290 -0.1601
 2223DECAN   C822218   2.142   5.272   5.931 -0.0521 -0.1780 -0.1938
 2223DECAN   C922219   2.169   5.418   5.973 -0.3698 -0.2202  0.1607
 2223DECAN  C1022220   2.312   5.469   6.000 -0.3504 -0.0836 -0.1902
 2224DECAN   C122221   5.524   2.707   5.650  0.7187  0.3047 -0.4895
 2224DECAN   C222222   5.609   2.579   5.637  0.0981 -0.2214  0.4934
 2224DECAN   C322223   5.596   2.494   5.764  0.1965  0.1949  0.7844
 2224DECAN   C422224   5.698   2.378   5.758 -0.1489 -0.0706 -0.0289
 2224DECAN   C522225   5.690   2.286   5.881  0.0558 -0.1150 -0.0479
 2224DECAN   C622226   5.782   2.162   5.884 -0.2087 -0.3349 -0.7070
 2224DECAN   C722227   5.728   2.053   5.979  0.6466 -0.3819 -0.2678
 2224DECAN   C822228   5.816   1.927   5.989  0.0958 -0.7854 -0.4657
 2224DECAN   C922229   5.872   1.881   5.854  1.1462  0.5439 -0.5036
 2224DECAN  C1022230   5.926   1.737   5.867 -0.3085  0.0842  0.7120
 2225DECAN   C122231  10.210   9.879   6.303 -0.2882 -0.3797 -0.4190
 2225DECAN   C222232  10.114   9.843   6.188 -0.2516 -0.0462 -0.5538
 2225DECAN   C322233  10.155   9.721   6.104  0.2534 -0.0163 -0.3600
 2225DECAN   C422234  10.146   9.585   6.175  0.3320  0.2941  0.2413
 2225DECAN   C522235  10.174   9.460   6.089 -0.0790  0.2299  0.1973
 2225DECAN   C622236  10.169   9.320   6.153 -0.3423 -0.0112 -0.3436
 2225DECAN   C722237  10.179   9.205   6.052  0.0110 -0.2774 -0.0083
 2225DECAN   C822238  10.189   9.065   6.116  0.0939 -0.0462  0.4845
 2225DECAN   C922239  10.193   8.941   6.025  0.4817 -0.0647  0.5256
 2225DECAN  C1022240  10.178   8.803   6.092  0.4049 -0.5831 -0.5453
 2226DECAN   C122241   8.030   5.934   5.537  0.1497  0.5284 -0.2037
 2226DECAN   C222242   8.129   5.848   5.456  0.0295  0.6890 -0.5224
 2226DECAN   C322243   8.273   5.894   5.486  0.0906 -0.0746  0.3770
 2226DECAN   C422244   8.346   5.819   5.599  0.1397 -0.0270  0.3770
 2226DECAN   C522245   8.272   5.812   5.735 -0.0995  0.0604  0.2517
 2226DECAN   C622246   8.353   5.722   5.830  0.2843  0.4560  0.3049
 2226DECAN   C722247   8.282   5.708   5.966 -0.1442  0.5458  0.0933
 2226DECAN   C822248   8.361   5.615   6.060 -0.2746  0.2662 -0.0709
 2226DECAN   C922249   8.492   5.677   6.111  0.0162 -0.1617 -0.2962
 2226DECAN  C1022250   8.617   5.679   6.022 -0.0347 -0.5487 -0.3758
 2227DECAN   C122251   1.736   3.432  12.407 -0.6009  0.3509  0.3575
 2227DECAN   C222252   1.655   3.313  12.462 -0.1199 -0.1699 -0.0601
 2227DECAN   C322253   1.716   3.171  12.459  0.3366  0.0206  0.1693
 2227DECAN   C422254   1.603   3.072  12.491 -0.0257  0.3647 -0.0372
 2227DECAN   C522255   1.637   2.924  12.464  0.3674  0.4355  0.0565
 2227DECAN   C622256   1.532   2.817  12.501  0.2859  0.4465 -0.1376
 2227DECAN   C722257   1.588   2.676  12.476 -0.6233  0.0708 -0.0634
 2227DECAN   C822258   1.497   2.561  12.525 -0.0413 -0.2968  0.1612
 2227DECAN   C922259   1.525   2.411  12.507 -0.1681 -0.3565  0.4509
 2227DECAN  C1022260   1.430   2.316  12.583 -0.6013 -0.4390 -0.1840
 2228DECAN   C122261   8.869   6.827   9.125 -0.2840  0.5218  0.1306
 2228DECAN   C222262   8.946   6.694   9.131 -0.3540  0.4786  0.0657
 2228DECAN   C322263   9.093   6.702   9.085 -0.3563  0.5383  0.0691
 2228DECAN   C422264   9.163   6.571   9.044 -0.3031  0.6525 -0.2080
 2228DECAN   C522265   9.135   6.455   9.142 -0.0768  0.1180 -0.7689
 2228DECAN   C622266   9.245   6.352   9.113 -0.1994 -0.1738 -0.2091
 2228DECAN   C722267   9.283   6.246   9.218 -0.2211 -0.3310 -0.3577
 2228DECAN   C822268   9.165   6.147   9.210 -0.6111  0.0971 -0.0239
 2228DECAN   C922269   9.164   6.044   9.324  1.1041  0.0645 -0.0084
 2228DECAN  C1022270   9.077   5.922   9.288  0.5799  0.3983  0.1174
 2229DECAN   C122271   9.553   2.601   8.385 -0.1091  0.1372  0.0259
 2229DECAN   C222272   9.437   2.512   8.336  0.0225 -0.0091 -0.0172
 2229DECAN   C322273   9.473   2.407   8.228 -0.3111 -0.0650 -0.0739
 2229DECAN   C422274   9.520   2.471   8.096  0.2848 -0.2267  0.0583
 2229DECAN   C522275   9.586   2.367   8.003 -0.0078 -0.0189 -0.3865
 2229DECAN   C622276   9.725   2.331   8.059 -0.2396 -0.0692  0.1646
 2229DECAN   C722277   9.829   2.419   7.988 -0.2894 -0.1663 -0.0307
 2229DECAN   C822278   9.966   2.440   8.056 -0.3357 -0.0223  0.0195
 2229DECAN   C922279   9.952   2.505   8.195 -0.1777 -0.5382  0.2772
 2229DECAN  C1022280   9.910   2.420   8.316 -0.3596 -0.4440  0.2804
 2230DECAN   C122281   1.145   7.669  10.898 -0.3946 -0.3420 -0.1060
 2230DECAN   C222282   1.285   7.662  10.835 -0.4048 -0.7618 -0.0884
 2230DECAN   C322283   1.328   7.520  10.794  0.2028 -0.6979  0.3114
 2230DECAN   C422284   1.474   7.523  10.744  0.0400 -0.3993 -0.1518
 2230DECAN   C522285   1.526   7.380  10.719  0.2290 -0.4603  0.5733
 2230DECAN   C622286   1.578   7.321  10.851  0.4898 -0.2896  0.5468
 2230DECAN   C722287   1.478   7.335  10.967  0.1940 -0.1055  0.2682
 2230DECAN   C822288   1.515   7.332  11.116 -0.1468 -0.1323  0.3544
 2230DECAN   C922289   1.599   7.452  11.161 -0.1305  0.0843 -0.2513
 2230DECAN  C1022290   1.539   7.591  11.132 -0.5636  0.0502  0.4787
 2231DECAN   C122291   6.160   3.134   5.835  0.2685 -0.0447  0.5752
 2231DECAN   C222292   6.126   3.280   5.801 -0.2247 -0.3191 -0.1349
 2231DECAN   C322293   5.977   3.319   5.811 -0.1885 -0.3090  0.4226
 2231DECAN   C422294   5.887   3.220   5.735 -0.0826 -0.3010  0.2854
 2231DECAN   C522295   5.737   3.229   5.770 -0.1424 -0.2601  0.0238
 2231DECAN   C622296   5.667   3.357   5.722 -0.2457 -0.3208  0.0133
 2231DECAN   C722297   5.525   3.364   5.783 -0.1160  0.0787  0.2747
 2231DECAN   C822298   5.415   3.279   5.716 -0.1325  0.4064 -0.1164
 2231DECAN   C922299   5.273   3.288   5.775 -0.0859  0.0753  0.0482
 2231DECAN  C1022300   5.253   3.440   5.792  0.3777  0.1103  0.2958
 2232DECAN   C122301   5.891   3.826  11.469  0.4187 -0.0261 -0.1673
 2232DECAN   C222302   5.927   3.968  11.517 -0.1107  0.0346  0.0625
 2232DECAN   C322303   5.815   4.045  11.589 -0.3233 -0.2646  0.0520
 2232DECAN   C422304   5.864   4.185  11.629  0.0131 -0.1777 -0.6558
 2232DECAN   C522305   5.775   4.264  11.726  0.6187  0.0430 -0.2721
 2232DECAN   C622306   5.797   4.411  11.766  0.5095 -0.0900  0.2837
 2232DECAN   C722307   5.687   4.470  11.857  0.4623  0.0035  0.1671
 2232DECAN   C822308   5.708   4.622  11.865 -0.1828  0.1183 -0.2589
 2232DECAN   C922309   5.619   4.708  11.957  0.2446 -0.1074  0.3678
 2232DECAN  C1022310   5.477   4.696  11.901  0.3834  0.5447 -0.1273
 2233DECAN   C122311   9.824   7.862  12.972  0.0020  0.1876 -0.4000
 2233DECAN   C222312   9.688   7.798  12.938 -0.0189  0.0078  0.0099
 2233DECAN   C322313   9.680   7.651  12.983  0.6407 -0.0346 -0.0027
 2233DECAN   C422314   9.553   7.574  12.941  0.2724  0.4122  0.2860
 2233DECAN   C522315   9.493   7.648  12.821  0.3655  0.3299  0.1881
 2233DECAN   C622316   9.362   7.591  12.763  0.3830  0.5628 -0.0852
 2233DECAN   C722317   9.322   7.636  12.621  0.0513  0.0145 -0.1714
 2233DECAN   C822318   9.175   7.678  12.603  0.0218  0.1369  0.3286
 2233DECAN   C922319   9.087   7.558  12.642 -0.3262  0.1144 -0.5000
 2233DECAN  C1022320   8.944   7.580  12.694  0.0928  0.3447  0.6029
 2234DECAN   C122321   8.591   2.995  13.582  0.4825 -0.2910 -0.1401
 2234DECAN   C222322   8.495   2.875  13.581  0.1769 -0.0607  0.7019
 2234DECAN   C322323   8.377   2.914  13.491  0.1482  0.0452  0.7850
 2234DECAN   C422324   8.278   2.796  13.500 -0.2979  0.3149 -0.3374
 2234DECAN   C522325   8.139   2.828  13.442 -0.6247  0.5558  0.5614
 2234DECAN   C622326   8.057   2.698  13.435 -0.1579  0.2824  0.0980
 2234DECAN   C722327   7.911   2.701  13.385 -0.1128  0.3812 -0.0326
 2234DECAN   C822328   7.862   2.554  13.384  0.4002  0.2098 -0.3041
 2234DECAN   C922329   7.888   2.494  13.524  0.5569  0.2194 -0.3290
 2234DECAN  C1022330   7.862   2.343  13.512 -0.0299  0.3105 -0.2405
 2235DECAN   C122331   9.224   9.526   8.216 -0.0774  0.4123 -0.5585
 2235DECAN   C222332   9.165   9.668   8.208 -0.2501  0.3717 -0.0029
 2235DECAN   C322333   9.125   9.713   8.066 -0.0866  0.0612 -0.1462
 2235DECAN   C422334   9.082   9.860   8.058 -0.1987  0.0335 -0.0561
 2235DECAN   C522335   9.036   9.896   7.915  0.3443 -0.1780 -0.2870
 2235DECAN   C622336   8.993  10.043   7.902 -0.0235 -0.2758 -0.1921
 2235DECAN   C722337   9.102  10.150   7.885  0.2065 -0.4112  0.4154
 2235DECAN   C822338   9.200  10.132   7.767  0.2377 -0.5553  0.4626
 2235DECAN   C922339   9.321  10.228   7.779 -0.2344  0.0679  0.2862
 2235DECAN  C1022340   9.369  10.245   7.924  0.0673  0.6457  0.1186
 2236DECAN   C122341   8.330   3.935  13.028 -0.2813 -0.2284 -0.9213
 2236DECAN   C222342   8.370   3.788  13.004 -0.2599 -0.4763  0.5711
 2236DECAN   C322343   8.471   3.769  12.890 -0.3996 -0.3366  0.4241
 2236DECAN   C422344   8.510   3.622  12.909 -0.1893 -0.3641 -0.1843
 2236DECAN   C522345   8.631   3.572  12.829 -0.2910 -0.5210 -0.2391
 2236DECAN   C622346   8.682   3.436  12.882 -0.2678 -0.4198 -0.0033
 2236DECAN   C722347   8.781   3.457  12.999  0.1366 -0.6446 -0.3003
 2236DECAN   C822348   8.878   3.343  13.034  0.5918 -0.3051 -0.4430
 2236DECAN   C922349   8.987   3.374  13.138 -0.1148  0.2807  0.1359
 2236DECAN  C1022350   9.078   3.491  13.095  0.4257 -0.1454  0.1034
 2237DECAN   C122351   2.450   5.729  13.653  0.0904  0.3375 -0.7450
 2237DECAN   C222352   2.502   5.870  13.686  0.5804  0.0535 -0.2756
 2237DECAN   C322353   2.395   5.972  13.640  0.2473 -0.0984  0.1538
 2237DECAN   C422354   2.448   6.116  13.633 -0.4806  0.1466 -0.3186
 2237DECAN   C522355   2.592   6.132  13.582 -0.3020  0.4709  0.2814
 2237DECAN   C622356   2.653   6.272  13.607 -0.1670  0.4045  0.3228
 2237DECAN   C722357   2.801   6.282  13.568 -0.2607  0.0390 -0.1385
 2237DECAN   C822358   2.844   6.204  13.442 -0.0508 -0.1963  0.0754
 2237DECAN   C922359   2.984   6.239  13.390 -0.1255 -0.2114 -0.1374
 2237DECAN  C1022360   3.017   6.154  13.265  0.9051 -0.2346  0.1379
 2238DECAN   C122361   2.308   6.437  12.934 -0.0289  0.0286  0.2940
 2238DECAN   C222362   2.244   6.299  12.956  0.0214 -0.0118  0.1819
 2238DECAN   C322363   2.249   6.197  12.840 -0.1030 -0.4725  0.5793
 2238DECAN   C422364   2.387   6.132  12.820  0.0493 -0.1034  0.4050
 2238DECAN   C522365   2.431   6.063  12.951  0.1357 -0.2444  0.3016
 2238DECAN   C622366   2.565   5.987  12.944  0.4794  0.3742  0.0293
 2238DECAN   C722367   2.575   5.896  13.069 -0.2699  0.1154 -0.0932
 2238DECAN   C822368   2.486   5.774  13.040 -0.0405  0.0083 -0.3538
 2238DECAN   C922369   2.468   5.685  13.165 -0.8705  0.4788 -0.1322
 2238DECAN  C1022370   2.373   5.568  13.133 -1.0388  0.3251  0.9060
 2239DECAN   C122371   5.822   8.455  11.818  0.3549 -0.3934  0.6952
 2239DECAN   C222372   5.933   8.348  11.819  1.0875  0.3427 -0.5563
 2239DECAN   C322373   5.961   8.296  11.961 -0.0059  0.4630 -0.2867
 2239DECAN   C422374   6.076   8.193  11.967  0.2918  0.7876 -0.3297
 2239DECAN   C522375   6.214   8.248  11.930  0.4996  0.6751  0.2731
 2239DECAN   C622376   6.328   8.144  11.923 -0.2670 -0.1563  0.0545
 2239DECAN   C722377   6.468   8.193  11.881 -0.0511 -0.5466  0.3173
 2239DECAN   C822378   6.571   8.091  11.829 -0.1255 -0.3361 -0.2459
 2239DECAN   C922379   6.708   8.146  11.787 -0.2038 -0.0290 -0.0985
 2239DECAN  C1022380   6.790   8.070  11.682  0.2765  0.0458  0.2171
 2240DECAN   C122381   3.120   8.893   8.277 -0.2824 -0.0016 -0.2171
 2240DECAN   C222382   3.167   8.755   8.229  0.0295  0.1197 -0.2668
 2240DECAN   C322383   3.207   8.654   8.339  0.0999 -0.0814 -0.4765
 2240DECAN   C422384   3.301   8.709   8.449  0.0101  0.4162 -0.6452
 2240DECAN   C522385   3.428   8.776   8.394  0.2745  0.2840 -0.1987
 2240DECAN   C622386   3.519   8.830   8.506  0.1228 -0.0748  0.0992
 2240DECAN   C722387   3.622   8.937   8.467 -0.0113  0.0926  0.2091
 2240DECAN   C822388   3.686   9.019   8.581  0.9929 -0.5021  0.0858
 2240DECAN   C922389   3.781   9.129   8.528  0.5513  0.0069  0.3438
 2240DECAN  C1022390   3.708   9.226   8.433 -0.5313 -0.7304  0.3924
 2241DECAN   C122391   7.559  10.737  14.408 -0.4893 -0.0242  0.4693
 2241DECAN   C222392   7.674  10.837  14.431 -0.0499 -0.5926  0.7406
 2241DECAN   C322393   7.646  10.980  14.383  0.1661 -0.4143  1.1341
 2241DECAN   C422394   7.754  11.089  14.394  0.0104 -0.1705  0.3517
 2241DECAN   C522395   7.720  11.228  14.338 -0.1333 -0.2590  0.2176
 2241DECAN   C622396   7.844   0.075  14.352 -0.1626 -0.1544 -0.1772
 2241DECAN   C722397   7.826   0.221  14.307 -0.0299  0.0083  0.2921
 2241DECAN   C822398   7.966   0.277  14.275 -0.2920  0.0977 -0.7365
 2241DECAN   C922399   7.964   0.419  14.216 -0.1550  0.2543 -0.3649
 2241DECAN  C1022400   7.874   0.420  14.092  0.2117  0.4301 -0.6312
 2242DECAN   C122401   5.017   6.080   6.940  0.3201  0.1002 -0.3698
 2242DECAN   C222402   5.018   6.166   6.813 -0.5382 -0.1041 -0.5267
 2242DECAN   C322403   4.888   6.145   6.734 -0.3360 -1.0525 -0.6203
 2242DECAN   C422404   4.872   6.241   6.614 -0.1208  0.2149  0.3467
 2242DECAN   C522405   4.737   6.218   6.543  0.1444  0.1203 -0.1243
 2242DECAN   C622406   4.732   6.273   6.399  0.1031  0.3332 -0.0424
 2242DECAN   C722407   4.830   6.194   6.310 -0.1147  0.1298 -0.1033
 2242DECAN   C822408   4.870   6.262   6.177  0.3719  0.1532  0.0533
 2242DECAN   C922409   4.922   6.407   6.184  0.2194  0.2239 -0.2679
 2242DECAN  C1022410   5.042   6.419   6.281 -0.3063  0.0567  0.4110
 2243DECAN   C122411   3.612   2.258  10.205 -0.0814 -0.0939 -0.2180
 2243DECAN   C222412   3.558   2.146  10.297  0.6758 -0.1598  0.1502
 2243DECAN   C322413   3.425   2.188  10.361  0.3919 -0.1767 -0.4224
 2243DECAN   C422414   3.379   2.073  10.453  0.1244  0.3604  0.1250
 2243DECAN   C522415   3.253   2.120  10.528  0.0530  0.1413  0.1429
 2243DECAN   C622416   3.289   2.222  10.638  0.0943  0.7292 -0.4099
 2243DECAN   C722417   3.162   2.285  10.696 -0.0466  0.2491 -0.1938
 2243DECAN   C822418   3.184   2.404  10.792 -0.3693 -0.1895  0.4279
 2243DECAN   C922419   3.234   2.524  10.711  0.1302 -0.5216  0.2444
 2243DECAN  C1022420   3.371   2.503  10.642 -0.2727  0.3978 -0.8708
 2244DECAN   C122421   5.776   4.542   8.191  0.0884  0.5759 -0.0713
 2244DECAN   C222422   5.771   4.566   8.343  0.0812  0.1827 -0.0071
 2244DECAN   C322423   5.728   4.705   8.394  0.7328  0.3233  0.1690
 2244DECAN   C422424   5.727   4.701   8.548  0.0542  0.6075  0.1806
 2244DECAN   C522425   5.854   4.630   8.599 -0.0518  0.5698  0.3874
 2244DECAN   C622426   5.855   4.585   8.747  0.0922 -0.8348 -0.0311
 2244DECAN   C722427   5.761   4.465   8.768 -0.3240 -0.4772  0.1532
 2244DECAN   C822428   5.787   4.343   8.677  0.4226 -0.1658 -0.0603
 2244DECAN   C922429   5.703   4.225   8.730  0.4573 -0.3193 -0.3469
 2244DECAN  C1022430   5.561   4.274   8.762  0.7840  0.2457  0.2718
 2245DECAN   C122431   3.048   2.989   4.840  0.0385 -0.3477  0.0932
 2245DECAN   C222432   3.107   2.910   4.722  0.4864  0.0827  0.0261
 2245DECAN   C322433   3.028   2.938   4.593  0.4888  0.0660  0.0213
 2245DECAN   C422434   3.008   3.089   4.569  0.0887 -0.0643 -0.4936
 2245DECAN   C522435   3.121   3.179   4.621 -0.4052 -0.0735  0.6307
 2245DECAN   C622436   3.111   3.326   4.577 -0.0200 -0.2864 -0.1780
 2245DECAN   C722437   3.233   3.419   4.595  0.0762 -0.3442 -0.5206
 2245DECAN   C822438   3.364   3.368   4.533  0.2163 -0.3618 -0.2063
 2245DECAN   C922439   3.359   3.314   4.389 -1.0529 -0.4197 -0.1452
 2245DECAN  C1022440   3.368   3.420   4.278  0.1117 -0.2156  0.1314
 2246DECAN   C122441   5.388   8.681   7.404 -0.6655 -0.3627 -0.3001
 2246DECAN   C222442   5.321   8.778   7.503  0.1946  0.2283 -0.2917
 2246DECAN   C322443   5.418   8.865   7.586  0.2382 -0.3893  0.3134
 2246DECAN   C422444   5.527   8.930   7.499 -0.2013  0.4958  0.4062
 2246DECAN   C522445   5.645   8.990   7.578  0.0483  0.2015  0.2627
 2246DECAN   C622446   5.731   9.095   7.505 -0.0409  0.1286  0.0524
 2246DECAN   C722447   5.883   9.076   7.522 -0.0688  0.1459  0.3272
 2246DECAN   C822448   5.969   9.161   7.427 -0.4435 -0.3046 -0.4278
 2246DECAN   C922449   6.109   9.097   7.415 -0.4075 -0.2378 -0.3695
 2246DECAN  C1022450   6.210   9.171   7.326  0.1254 -0.3231  0.1605
 2247DECAN   C122451  10.276   9.547  12.405 -0.2260 -0.4214  0.4380
 2247DECAN   C222452  10.331   9.518  12.545 -0.0279 -0.5000  0.3442
 2247DECAN   C322453  10.252   9.413  12.626 -0.2141 -0.2191  0.5268
 2247DECAN   C422454  10.294   9.382  12.771  0.7103 -0.1278  0.2869
 2247DECAN   C522455  10.212   9.265  12.828  0.8107 -0.4376 -0.1976
 2247DECAN   C622456  10.250   9.212  12.967  0.4068 -0.3282 -0.0433
 2247DECAN   C722457  10.172   9.095  13.030  0.1188  0.1304  0.4619
 2247DECAN   C822458  10.237   9.051  13.163  0.0917 -0.0793  0.4074
 2247DECAN   C922459  10.172   8.936  13.241  0.3508 -0.3759  0.1860
 2247DECAN  C1022460  10.193   8.925  13.393  0.3616  0.0786  0.2184
 2248DECAN   C122461   6.324   3.871  14.958  0.1452  0.0186  0.1279
 2248DECAN   C222462   6.425   3.932  15.056  0.5578 -0.3612 -0.0602
 2248DECAN   C322463   6.524   4.033  14.995 -0.1572 -0.0941 -0.7852
 2248DECAN   C422464   6.454   4.165  14.961 -0.0434  0.3089  0.4816
 2248DECAN   C522465   6.562   4.271  14.931  0.1012  0.1059  0.2758
 2248DECAN   C622466   6.534   4.382  14.828 -0.1215 -0.2023  0.0046
 2248DECAN   C722467   6.651   4.478  14.799 -0.7763  0.7916  0.5833
 2248DECAN   C822468   6.615   4.584  14.694 -0.0656  0.2484 -0.2245
 2248DECAN   C922469   6.722   4.692  14.665  0.2426 -0.1496 -0.5776
 2248DECAN  C1022470   6.648   4.816  14.613  0.1836  0.1336  0.1726
 2249DECAN   C122471   2.727   2.576  13.473 -0.6425  0.5245  0.1467
 2249DECAN   C222472   2.781   2.706  13.409  0.1101  0.2064  0.1328
 2249DECAN   C322473   2.678   2.817  13.435 -0.4229 -0.2714  0.0753
 2249DECAN   C422474   2.718   2.960  13.394 -0.2645 -0.2533  0.2941
 2249DECAN   C522475   2.620   3.075  13.425  0.0334  0.2145 -0.5000
 2249DECAN   C622476   2.605   3.097  13.576 -0.8947 -0.0793 -0.5468
 2249DECAN   C722477   2.544   2.987  13.665 -0.1839 -0.2917 -0.3143
 2249DECAN   C822478   2.569   3.017  13.814 -0.1773  0.7233 -0.5121
 2249DECAN   C922479   2.711   2.964  13.841 -0.4515  0.2396  0.0028
 2249DECAN  C1022480   2.744   2.820  13.796 -0.1551  0.2311  0.2423
 2250DECAN   C122481   8.786   8.860   4.324  0.4536  0.2961 -0.1555
 2250DECAN   C222482   8.909   8.790   4.384 -0.0702 -0.5332 -0.0257
 2250DECAN   C322483   8.959   8.873   4.505 -0.1588 -0.5478  0.0195
 2250DECAN   C422484   8.861   8.882   4.623  0.2351 -0.0265  0.3067
 2250DECAN   C522485   8.881   8.782   4.739 -0.0671 -0.4085  0.0296
 2250DECAN   C622486   8.789   8.806   4.860  0.1202  0.3005  0.0356
 2250DECAN   C722487   8.643   8.781   4.816  0.0619 -0.0610  0.4316
 2250DECAN   C822488   8.530   8.783   4.921 -0.2880 -0.8060  0.0788
 2250DECAN   C922489   8.386   8.777   4.868 -0.2412 -0.6332 -0.0701
 2250DECAN  C1022490   8.286   8.770   4.985 -0.1094 -0.1212  0.0761
 2251DECAN   C122491   3.047   7.698   5.504 -0.4903  0.4259  0.2858
 2251DECAN   C222492   3.119   7.764   5.623  0.2001 -0.0568  0.1461
 2251DECAN   C322493   3.096   7.917   5.627  0.7795  0.0459 -0.3174
 2251DECAN   C422494   3.179   7.997   5.729 -0.1445  0.6859 -0.0561
 2251DECAN   C522495   3.129   7.983   5.874 -0.0578 -0.0458 -0.0919
 2251DECAN   C622496   3.216   8.058   5.977  0.2931 -0.1488 -0.3086
 2251DECAN   C722497   3.159   8.064   6.120  0.7214 -0.3826 -0.1284
 2251DECAN   C822498   3.258   8.133   6.216  0.1191  0.0207  0.2069
 2251DECAN   C922499   3.217   8.101   6.361  0.2143 -0.4664  0.1272
 2251DECAN  C1022500   3.303   8.168   6.470  0.0315  0.9769 -0.5872
 2252DECAN   C122501   2.045   8.399  12.998  0.1089 -0.2758 -0.2044
 2252DECAN   C222502   2.173   8.334  12.943  0.0706  0.0966 -0.7369
 2252DECAN   C322503   2.291   8.336  13.042  0.0470 -0.0445 -0.7085
 2252DECAN   C422504   2.425   8.282  12.987  0.2310 -0.5237  0.1776
 2252DECAN   C522505   2.537   8.276  13.091  0.2480 -0.1288  0.1828
 2252DECAN   C622506   2.663   8.226  13.016 -0.2211 -0.0779 -0.6498
 2252DECAN   C722507   2.673   8.074  12.997 -0.0057 -0.1498  0.0061
 2252DECAN   C822508   2.785   8.011  12.911  0.1320 -0.0448  0.1097
 2252DECAN   C922509   2.821   7.865  12.942 -0.7594 -0.3203 -0.1353
 2252DECAN  C1022510   2.951   7.811  12.879 -0.4730  0.4193 -0.1824
 2253DECAN   C122511   1.564   0.596   7.968 -0.0737  0.1979 -0.1639
 2253DECAN   C222512   1.550   0.445   7.944 -0.0057  0.1681 -0.0161
 2253DECAN   C322513   1.608   0.361   8.059  0.5489  0.0140 -0.3990
 2253DECAN   C422514   1.587   0.210   8.041  0.4395  0.0571 -0.6352
 2253DECAN   C522515   1.649   0.124   8.153 -0.3089  0.1790 -0.1220
 2253DECAN   C622516   1.802   0.131   8.156 -0.2958 -0.0861 -0.0985
 2253DECAN   C722517   1.855   0.273   8.186 -0.1749 -0.2387  0.4263
 2253DECAN   C822518   2.009   0.276   8.188 -0.1740 -0.2732  0.4257
 2253DECAN   C922519   2.077   0.405   8.239  0.2602 -0.1179 -0.5134
 2253DECAN  C1022520   2.074   0.532   8.151  0.7011 -0.1413 -0.5613
 2254DECAN   C122521   3.933   8.399  12.335  0.1019 -0.0674  0.9343
 2254DECAN   C222522   3.811   8.464  12.403  0.1390  0.1336  0.8111
 2254DECAN   C322523   3.752   8.578  12.318 -0.4630 -0.4110  0.4956
 2254DECAN   C422524   3.724   8.544  12.171 -0.5702 -0.3321  0.4974
 2254DECAN   C522525   3.627   8.429  12.139  0.0503 -0.6074 -0.4540
 2254DECAN   C622526   3.582   8.409  11.994 -0.6668  0.0287 -0.3245
 2254DECAN   C722527   3.449   8.332  11.977 -0.5636 -0.1456 -0.3523
 2254DECAN   C822528   3.431   8.275  11.835 -0.2934  0.0405 -0.4641
 2254DECAN   C922529   3.284   8.230  11.817 -0.2174 -0.2630 -0.3327
 2254DECAN  C1022530   3.240   8.201  11.672  0.2935 -0.0557 -0.5319
 2255DECAN   C122531   2.744   0.615   5.998 -0.1796  0.0781  0.1152
 2255DECAN   C222532   2.631   0.603   6.102 -0.5000  0.1147 -0.2274
 2255DECAN   C322533   2.522   0.708   6.079 -0.8337 -0.3415 -0.7723
 2255DECAN   C422534   2.412   0.700   6.187 -0.3458 -0.1443 -0.2574
 2255DECAN   C522535   2.296   0.798   6.158 -0.0676  0.2363 -0.0949
 2255DECAN   C622536   2.233   0.785   6.018 -0.1966 -0.0937 -0.0073
 2255DECAN   C722537   2.129   0.898   6.014  0.1570  0.2260 -0.2108
 2255DECAN   C822538   2.037   0.901   5.890  0.2672  0.0241 -0.2979
 2255DECAN   C922539   1.939   0.783   5.882  0.2257  0.0269  0.1430
 2255DECAN  C1022540   1.997   0.644   5.849  0.0659 -0.1431  0.5660
 2256DECAN   C122541   7.855   3.369   4.362  0.4720 -0.4266 -0.4818
 2256DECAN   C222542   7.817   3.225   4.325 -0.0579 -0.3481 -0.2502
 2256DECAN   C322543   7.731   3.210   4.198 -0.3103 -0.1676 -0.1020
 2256DECAN   C422544   7.768   3.307   4.084  0.5965 -0.0639  0.2712
 2256DECAN   C522545   7.737   3.453   4.123 -0.4462 -0.0984 -0.4006
 2256DECAN   C622546   7.788   3.548   4.013  0.3482  0.1305  0.1598
 2256DECAN   C722547   7.737   3.691   4.035 -0.4084 -0.1960  0.5594
 2256DECAN   C822548   7.768   3.785   3.917  0.0359 -0.2940  0.5981
 2256DECAN   C922549   7.740   3.932   3.953  0.2693 -0.1669  0.2725
 2256DECAN  C1022550   7.765   4.019   3.829 -0.1065 -0.5630 -0.0823
 2257DECAN   C122551   6.892   7.736   7.167  0.5173  0.6535  0.3349
 2257DECAN   C222552   6.955   7.730   7.026 -0.4929 -0.2425 -0.0903
 2257DECAN   C322553   6.853   7.782   6.923 -0.2878  0.2491 -0.0437
 2257DECAN   C422554   6.912   7.771   6.781 -0.1776  0.5247 -0.0202
 2257DECAN   C522555   7.053   7.831   6.761  0.0752  0.0110  0.1976
 2257DECAN   C622556   7.104   7.792   6.621 -0.0507 -0.0095  0.1572
 2257DECAN   C722557   7.258   7.791   6.618 -0.0564  0.0470 -0.2421
 2257DECAN   C822558   7.307   7.754   6.477  0.0073 -0.3108 -0.1258
 2257DECAN   C922559   7.459   7.727   6.477  0.1636  0.5634 -0.0982
 2257DECAN  C1022560   7.514   7.692   6.337 -0.4219 -0.6711 -0.0295
 2258DECAN   C122561   3.202   6.419   9.792 -0.1120 -0.1764  0.3246
 2258DECAN   C222562   3.143   6.547   9.730  0.3580 -0.0295  0.1722
 2258DECAN   C322563   3.227   6.583   9.606  0.1293 -0.0087  0.0212
 2258DECAN   C422564   3.182   6.692   9.508 -0.2979 -0.0537  0.1651
 2258DECAN   C522565   3.277   6.715   9.389 -0.1038  0.2978  0.3846
 2258DECAN   C622566   3.247   6.822   9.283 -0.6553  0.1516  0.3933
 2258DECAN   C722567   3.256   6.968   9.331  0.1473  0.3056 -0.1993
 2258DECAN   C822568   3.221   7.057   9.210 -0.6970 -0.3553 -0.4451
 2258DECAN   C922569   3.218   7.208   9.237 -0.4075 -0.3671 -0.3482
 2258DECAN  C1022570   3.175   7.295   9.118 -1.2338  0.1890  0.3387
 2259DECAN   C122571   5.388  11.158   8.762  0.4250 -0.1777 -0.5361
 2259DECAN   C222572   5.344  11.026   8.828  0.0240  0.1174 -0.2088
 2259DECAN   C322573   5.230  11.049   8.928  0.0262 -0.0128 -0.1764
 2259DECAN   C422574   5.090  11.053   8.863 -0.0174 -0.5777 -0.1276
 2259DECAN   C522575   5.035  10.913   8.829 -0.0885 -0.7211  0.5611
 2259DECAN   C622576   4.893  10.916   8.770 -0.0936 -0.0769  0.5981
 2259DECAN   C722577   4.840  10.773   8.751  0.3024 -0.0951 -0.4521
 2259DECAN   C822578   4.696  10.781   8.696 -0.0172  0.0279  0.3877
 2259DECAN   C922579   4.619  10.902   8.752 -0.2591  0.1674 -0.2354
 2259DECAN  C1022580   4.473  10.893   8.706 -0.2839  0.0113 -0.1286
 2260DECAN   C122581   6.833   9.552   6.931  0.5743  0.6187 -0.3688
 2260DECAN   C222582   6.935   9.513   7.040 -0.3667  0.0865  0.3359
 2260DECAN   C322583   7.028   9.622   7.095  0.5082 -0.5633  0.1605
 2260DECAN   C422584   7.110   9.580   7.219  0.4237  0.0413  0.4263
 2260DECAN   C522585   7.228   9.485   7.190 -0.0380 -0.3349 -0.2534
 2260DECAN   C622586   7.331   9.480   7.304  0.3669  0.8448 -0.5569
 2260DECAN   C722587   7.429   9.365   7.274 -0.3599 -0.0934  0.5998
 2260DECAN   C822588   7.511   9.315   7.394  0.7807  0.1315 -0.0684
 2260DECAN   C922589   7.604   9.193   7.375  0.9395  0.3229 -0.5229
 2260DECAN  C1022590   7.623   9.137   7.517 -0.6360 -0.0433 -0.4315
 2261DECAN   C122591   8.174   3.635   7.088 -0.0109 -0.5239 -0.1161
 2261DECAN   C222592   8.083   3.660   6.967  0.2244 -0.3987 -0.2693
 2261DECAN   C322593   7.932   3.645   6.994  0.3711 -0.5389  0.4779
 2261DECAN   C422594   7.887   3.711   7.126  0.5160  0.3017  0.1069
 2261DECAN   C522595   7.751   3.673   7.186  0.6282  0.3198  0.3747
 2261DECAN   C622596   7.735   3.525   7.226 -0.5206  0.4910  0.5870
 2261DECAN   C722597   7.594   3.469   7.252 -0.2204 -0.7183 -0.3022
 2261DECAN   C822598   7.534   3.515   7.386 -0.5832 -0.9967 -0.3655
 2261DECAN   C922599   7.411   3.440   7.439 -0.3194 -1.0050  0.2473
 2261DECAN  C1022600   7.351   3.514   7.561  0.5310 -0.2563  0.2179
 2262DECAN   C122601   5.410   6.328  12.944  0.2946 -0.3167 -0.2157
 2262DECAN   C222602   5.553   6.341  12.999  0.2626 -0.5704 -0.0703
 2262DECAN   C322603   5.556   6.449  13.108  0.5429 -0.3556 -0.2875
 2262DECAN   C422604   5.697   6.457  13.169  0.4125 -0.3419  0.0175
 2262DECAN   C522605   5.728   6.579  13.258  0.0814 -0.6670  0.5792
 2262DECAN   C622606   5.867   6.566  13.322  0.1386 -0.7523  0.4362
 2262DECAN   C722607   5.911   6.689  13.403 -0.0983 -0.5812  0.3068
 2262DECAN   C822608   5.796   6.733  13.496 -0.3424  0.0062 -0.2650
 2262DECAN   C922609   5.834   6.846  13.594 -0.0187 -0.0434 -0.3322
 2262DECAN  C1022610   5.827   6.986  13.529 -0.1757  0.0785 -0.0525
 2263DECAN   C122611   9.648   9.125   5.433 -0.5956  0.3258  0.1366
 2263DECAN   C222612   9.530   9.041   5.483 -0.7631  0.2371 -0.4015
 2263DECAN   C322613   9.510   9.053   5.635  0.5719 -0.2497 -0.1826
 2263DECAN   C422614   9.378   8.985   5.676  0.4045  0.2218  0.0719
 2263DECAN   C522615   9.259   9.031   5.590 -0.0028 -0.0618  0.4823
 2263DECAN   C622616   9.124   8.985   5.649 -0.1082  0.4592  0.6532
 2263DECAN   C722617   8.997   9.012   5.566  0.1350  0.1798  0.1805
 2263DECAN   C822618   8.888   8.912   5.609  0.3687 -0.3330 -0.4096
 2263DECAN   C922619   8.932   8.766   5.586 -0.0389 -0.4585 -0.3896
 2263DECAN  C1022620   9.051   8.745   5.681 -0.5661 -0.5075  0.2665
 2264DECAN   C122621   6.131   3.976  11.188 -0.2532  0.3128  0.1521
 2264DECAN   C222622   6.253   4.022  11.269  0.0576  0.3551 -0.3357
 2264DECAN   C322623   6.390   3.960  11.236  0.2429  0.3487  0.4226
 2264DECAN   C422624   6.441   3.993  11.094 -0.4077  0.1448  0.1346
 2264DECAN   C522625   6.323   3.961  11.002  0.0517 -0.7499 -0.1595
 2264DECAN   C622626   6.340   4.024  10.862  0.2902 -0.4015  0.0246
 2264DECAN   C722627   6.212   4.038  10.777  0.2046 -0.3016  0.1694
 2264DECAN   C822628   6.126   3.912  10.757 -0.1575 -0.0921  0.3968
 2264DECAN   C922629   6.009   3.924  10.658  0.1236 -0.6258 -0.0069
 2264DECAN  C1022630   6.049   3.910  10.510 -0.0567  0.0332 -0.1221
 2265DECAN   C122631   3.698   9.061   8.951 -0.1701  0.0304 -0.5494
 2265DECAN   C222632   3.604   9.124   9.055 -0.0823 -0.4353 -0.1870
 2265DECAN   C322633   3.463   9.071   9.026  0.0839 -1.1438  0.2657
 2265DECAN   C422634   3.354   9.138   9.112  0.0821  0.0964 -0.6834
 2265DECAN   C522635   3.219   9.065   9.113 -0.3340  0.8485  0.3169
 2265DECAN   C622636   3.110   9.134   9.197 -0.3121  0.9430  0.2665
 2265DECAN   C722637   2.985   9.051   9.230  0.6042 -0.1434  1.0850
 2265DECAN   C822638   2.891   9.124   9.328  0.0506  0.4070  0.1667
 2265DECAN   C922639   2.778   9.027   9.367  0.1330  0.2294 -0.0315
 2265DECAN  C1022640   2.663   9.096   9.444  0.1331  0.0088  0.1672
 2266DECAN   C122641   1.801   5.859   9.303 -0.3229 -0.2308 -0.3052
 2266DECAN   C222642   1.847   5.863   9.450  0.2070  0.4607 -0.4862
 2266DECAN   C322643   1.953   5.759   9.489 -0.5983 -0.2030 -0.0366
 2266DECAN   C422644   1.986   5.760   9.639 -0.5899 -0.1604 -0.0386
 2266DECAN   C522645   2.076   5.881   9.668 -0.0860 -0.4161 -0.5204
 2266DECAN   C622646   2.004   6.013   9.635  0.5736  0.0072 -0.2789
 2266DECAN   C722647   2.064   6.139   9.702 -0.4314  0.1716  0.3349
 2266DECAN   C822648   1.971   6.259   9.677 -0.3384  0.1506 -0.1362
 2266DECAN   C922649   2.017   6.380   9.761 -0.1184 -0.0489  0.0302
 2266DECAN  C1022650   1.941   6.511   9.732  0.3849  0.1192 -0.5754
 2267DECAN   C122651   7.742   1.487   9.645  0.0455  0.0479  0.2946
 2267DECAN   C222652   7.860   1.395   9.685  0.1581  0.2947  0.5337
 2267DECAN   C322653   7.815   1.248   9.686  0.5440  0.1654 -0.2264
 2267DECAN   C422654   7.823   1.178   9.550  0.2040  0.0274 -0.1758
 2267DECAN   C522655   7.751   1.042   9.565 -0.1682  0.2742  0.2680
 2267DECAN   C622656   7.730   0.961   9.436  0.3386  0.1926  0.2323
 2267DECAN   C722657   7.660   0.826   9.461 -0.2665  0.4290 -0.1511
 2267DECAN   C822658   7.506   0.834   9.463 -0.2687  0.2671  0.3619
 2267DECAN   C922659   7.420   0.708   9.480 -0.2052  0.1830  0.0604
 2267DECAN  C1022660   7.268   0.727   9.485 -0.1968  0.2932 -0.0841
 2268DECAN   C122661   6.336   9.905  14.716 -0.1961  0.1639 -0.0022
 2268DECAN   C222662   6.257   9.865  14.590 -0.4950  0.4369  0.0965
 2268DECAN   C322663   6.317   9.915  14.457 -0.4112 -0.0095 -0.0346
 2268DECAN   C422664   6.278   9.844  14.326  0.1692 -0.2341 -0.0893
 2268DECAN   C522665   6.124   9.847  14.319  0.1867 -0.2463 -0.4966
 2268DECAN   C622666   6.060   9.976  14.371 -0.3015 -0.4969 -0.4695
 2268DECAN   C722667   6.110  10.103  14.300 -0.4820 -0.3177 -0.2796
 2268DECAN   C822668   6.019  10.227  14.286 -0.4040 -0.2749 -0.4194
 2268DECAN   C922669   5.953  10.285  14.413  0.1836 -0.1248 -0.1773
 2268DECAN  C1022670   5.885  10.421  14.387  0.3293  0.0614  0.4100
 2269DECAN   C122671  11.134   0.644  11.689 -0.4528  0.0139 -0.2543
 2269DECAN   C222672  10.991   0.588  11.693 -0.1492 -0.7843 -0.3653
 2269DECAN   C322673  10.898   0.668  11.787  0.0621 -0.6186 -0.2973
 2269DECAN   C422674  10.747   0.643  11.774 -0.1487  0.6192 -0.3588
 2269DECAN   C522675  10.655   0.753  11.829 -0.4819 -0.0927  0.5191
 2269DECAN   C622676  10.532   0.697  11.905 -0.9119  0.3665  0.1702
 2269DECAN   C722677  10.582   0.662  12.046 -0.1838 -0.2749 -0.2357
 2269DECAN   C822678  10.462   0.611  12.129  0.1264  0.0186  0.4028
 2269DECAN   C922679  10.512   0.558  12.264  0.0792 -0.2122  0.3299
 2269DECAN  C1022680  10.574   0.662  12.359  0.2499 -0.1856  0.1878
 2270DECAN   C122681   1.448  10.286  13.885 -0.1522  0.1094 -0.0277
 2270DECAN   C222682   1.551  10.376  13.814  0.3767 -0.3287  0.1754
 2270DECAN   C322683   1.701  10.346  13.829  0.5970  0.6240 -0.0557
 2270DECAN   C422684   1.758  10.435  13.717 -0.0968 -0.1539 -1.0450
 2270DECAN   C522685   1.905  10.412  13.677  0.0496 -0.7825 -0.1642
 2270DECAN   C622686   1.934  10.441  13.529  0.3300 -0.2265 -0.0032
 2270DECAN   C722687   2.082  10.422  13.492  0.2050 -0.5037 -0.3708
 2270DECAN   C822688   2.128  10.276  13.475  0.5919 -0.4189 -0.0793
 2270DECAN   C922689   2.061  10.200  13.591  0.4098 -0.0062  0.0875
 2270DECAN  C1022690   2.093  10.051  13.606  0.1630 -0.0745 -0.0668
 2271DECAN   C122691   5.513  10.312  12.563 -0.3786  0.0270  0.1493
 2271DECAN   C222692   5.630  10.325  12.464 -0.5064  0.1297  0.0114
 2271DECAN   C322693   5.743  10.421  12.505 -0.7446  0.3641  0.1218
 2271DECAN   C422694   5.879  10.419  12.433 -0.5087  0.2889  0.5639
 2271DECAN   C522695   5.972  10.535  12.475  0.0792  0.1255 -0.2442
 2271DECAN   C622696   5.895  10.665  12.506  0.0746 -0.0885  0.6828
 2271DECAN   C722697   5.982  10.773  12.573  0.0263  0.3608  0.0265
 2271DECAN   C822698   6.101  10.805  12.480  0.3517 -0.2667  0.2218
 2271DECAN   C922699   6.059  10.851  12.339  0.6541 -0.8567 -0.0668
 2271DECAN  C1022700   6.164  10.874  12.229 -0.2172  0.0652 -0.7193
 2272DECAN   C122701   8.606   1.576  12.200 -0.5165  0.1012 -0.0592
 2272DECAN   C222702   8.549   1.719  12.208 -0.0524  0.2713  0.2277
 2272DECAN   C322703   8.445   1.758  12.101  0.1142 -0.5943 -0.2595
 2272DECAN   C422704   8.364   1.884  12.138  0.7536 -0.0317 -0.7355
 2272DECAN   C522705   8.261   1.944  12.040 -0.4560 -0.0911  0.4691
 2272DECAN   C622706   8.217   2.086  12.081 -0.2496  0.2912 -0.5930
 2272DECAN   C722707   8.174   2.082  12.229 -0.0312 -0.2140 -0.5401
 2272DECAN   C822708   8.083   2.200  12.266 -0.3688 -0.5260 -0.3787
 2272DECAN   C922709   8.135   2.336  12.216 -0.7157 -0.3242 -0.1976
 2272DECAN  C1022710   8.154   2.335  12.063 -0.3514  0.2194 -0.1562
 2273DECAN   C122711   5.874   8.577   5.392  0.4528 -0.5942  0.0618
 2273DECAN   C222712   5.938   8.461   5.472  0.6216 -0.3866  0.2281
 2273DECAN   C322713   6.074   8.502   5.532  0.2206  0.7758  0.3847
 2273DECAN   C422714   6.116   8.435   5.665 -0.6779  0.0711  0.3238
 2273DECAN   C522715   6.095   8.283   5.665 -0.4724  0.0429  0.2581
 2273DECAN   C622716   6.143   8.205   5.789 -0.3019 -0.0170  0.1555
 2273DECAN   C722717   6.132   8.052   5.786  0.0722 -0.0432  0.0933
 2273DECAN   C822718   6.188   7.986   5.914  0.0130  0.0724  0.1792
 2273DECAN   C922719   6.177   7.833   5.908  0.0922  0.0770 -0.0932
 2273DECAN  C1022720   6.247   7.757   6.022 -0.3912  0.7376  0.6508
 2274DECAN   C122721   7.184   0.756  10.795  0.6720  0.1379  0.2512
 2274DECAN   C222722   7.077   0.668  10.726  0.5199  0.2421  0.3532
 2274DECAN   C322723   7.080   0.523  10.775 -0.5206 -0.0628 -0.4608
 2274DECAN   C422724   7.210   0.453  10.731  0.0314  0.2801  0.6022
 2274DECAN   C522725   7.211   0.300  10.744 -0.5207  0.2711  0.5487
 2274DECAN   C622726   7.106   0.232  10.655  0.1236  0.0318 -0.0416
 2274DECAN   C722727   6.957   0.253  10.688  0.2080  0.5055  0.0388
 2274DECAN   C822728   6.847   0.182  10.607  0.3802 -0.2739  0.4801
 2274DECAN   C922729   6.836   0.030  10.631  0.7858 -0.3648  0.1105
 2274DECAN  C1022730   6.746  11.201  10.529  0.1467  0.2180  0.2463
 2275DECAN   C122731   3.731   2.591  11.466  0.1070 -0.6098  0.3542
 2275DECAN   C222732   3.587   2.550  11.502  0.0445 -0.6275  0.0818
 2275DECAN   C322733   3.556   2.449  11.614  0.0878 -0.1563  0.5231
 2275DECAN   C422734   3.406   2.429  11.643  0.0065 -0.1062  0.1479
 2275DECAN   C522735   3.375   2.357  11.776  0.0742 -0.0557  0.1905
 2275DECAN   C622736   3.229   2.380  11.817 -0.0717 -0.7649  0.0760
 2275DECAN   C722737   3.195   2.298  11.943 -0.1265 -0.8653 -0.0031
 2275DECAN   C822738   3.260   2.345  12.075  0.0680 -0.5949 -0.1951
 2275DECAN   C922739   3.206   2.263  12.193 -0.4709 -0.0970 -0.0924
 2275DECAN  C1022740   3.245   2.291  12.339  0.4511  0.1392 -0.3785
 2276DECAN   C122741   7.573   4.508  12.786  0.0482 -0.8463  0.2311
 2276DECAN   C222742   7.485   4.382  12.783 -0.4290 -0.5020 -0.2825
 2276DECAN   C322743   7.356   4.418  12.707 -0.1756  0.0174 -0.4712
 2276DECAN   C422744   7.268   4.293  12.719  0.0944 -0.1428 -0.1759
 2276DECAN   C522745   7.365   4.173  12.729 -0.2191 -0.3289  0.7862
 2276DECAN   C622746   7.283   4.043  12.715 -0.0376 -0.3470 -0.2018
 2276DECAN   C722747   7.224   4.028  12.574 -0.2364  0.2199 -0.1827
 2276DECAN   C822748   7.138   3.900  12.575  0.1587 -0.0531 -0.5441
 2276DECAN   C922749   7.085   3.850  12.439 -0.4341 -0.0890 -0.3050
 2276DECAN  C1022750   7.203   3.796  12.355 -0.2217 -0.0060 -0.0606
 2277DECAN   C122751   3.069   3.206  14.483 -0.5188 -0.0410 -0.2467
 2277DECAN   C222752   3.116   3.353  14.485  0.2027 -0.2683 -0.1864
 2277DECAN   C322753   3.223   3.371  14.376  0.1558 -0.4243 -0.2590
 2277DECAN   C422754   3.175   3.312  14.242 -0.3374 -0.5525 -0.0281
 2277DECAN   C522755   3.170   3.160  14.218 -0.0170 -0.6011  0.1955
 2277DECAN   C622756   3.301   3.110  14.155  0.0114 -0.3028  0.0159
 2277DECAN   C722757   3.421   3.164  14.234  0.4635 -0.4647 -0.5580
 2277DECAN   C822758   3.550   3.092  14.188  0.9709  0.1208 -0.0625
 2277DECAN   C922759   3.535   2.939  14.192  0.9686  0.1291  0.3147
 2277DECAN  C1022760   3.635   2.837  14.135 -0.0367 -0.3518 -0.6362
 2278DECAN   C122761   6.507  10.071   8.773 -0.5161 -0.2252 -0.3397
 2278DECAN   C222762   6.363  10.086   8.825 -0.4400 -0.9988  0.1177
 2278DECAN   C322763   6.356  10.078   8.978 -0.1501  0.1027  0.1960
 2278DECAN   C422764   6.394  10.197   9.068 -0.6485  0.4011  0.0146
 2278DECAN   C522765   6.438  10.153   9.209 -0.1805  0.2366 -0.1832
 2278DECAN   C622766   6.346  10.044   9.267  0.8056 -0.3884  0.2439
 2278DECAN   C722767   6.360  10.046   9.420 -0.0350  0.0270  0.3208
 2278DECAN   C822768   6.283   9.936   9.496  0.2391 -0.5230 -0.1900
 2278DECAN   C922769   6.299   9.956   9.648  0.2726 -0.0233 -0.2573
 2278DECAN  C1022770   6.209   9.859   9.727  0.2339  0.5794  0.4463
 2279DECAN   C122771   4.189   7.666  11.001  0.1197 -0.1936  0.2712
 2279DECAN   C222772   4.180   7.809  11.059  0.2130 -0.1377  0.1507
 2279DECAN   C322773   4.045   7.871  11.016  0.4659  0.0512 -0.3819
 2279DECAN   C422774   4.031   8.007  11.087  0.2835 -0.0020 -0.3138
 2279DECAN   C522775   3.894   8.070  11.056  0.3834  0.0999 -0.5516
 2279DECAN   C622776   3.891   8.219  11.097  0.4411  0.0097 -0.2148
 2279DECAN   C722777   3.966   8.238  11.230 -0.1233  0.4755  0.0416
 2279DECAN   C822778   3.980   8.383  11.280  0.1217  0.3165  0.4426
 2279DECAN   C922779   4.055   8.403  11.413  0.3757 -0.0523  0.3552
 2279DECAN  C1022780   4.026   8.546  11.460  0.4520  0.0840 -0.0101
 2280DECAN   C122781   8.844   2.390  11.321  0.2994  0.3616  0.5380
 2280DECAN   C222782   8.866   2.530  11.382  0.1931  0.4052  0.4768
 2280DECAN   C322783   8.962   2.611  11.294 -0.1624  0.7006  0.3567
 2280DECAN   C422784   9.004   2.744  11.359  0.6455  0.2784  0.7153
 2280DECAN   C522785   9.110   2.820  11.278  0.4851  0.7518  0.9495
 2280DECAN   C622786   9.135   2.961  11.336  0.0890  0.9573  0.6264
 2280DECAN   C722787   9.202   3.065  11.244  0.2019 -0.0166 -0.4196
 2280DECAN   C822788   9.237   3.190  11.327 -0.6951  0.0250 -0.0874
 2280DECAN   C922789   9.322   3.296  11.254 -0.3618 -0.2569 -0.1157
 2280DECAN  C1022790   9.253   3.414  11.183  0.1215  0.3097  0.3446
 2281DECAN   C122791   8.411   3.115   9.519 -0.0550 -0.5950 -0.4700
 2281DECAN   C222792   8.337   3.225   9.440 -0.0291 -0.1099  0.1685
 2281DECAN   C322793   8.402   3.364   9.453  0.1028 -0.0902 -0.6685
 2281DECAN   C422794   8.534   3.406   9.384  0.0977 -0.1755 -0.7294
 2281DECAN   C522795   8.583   3.535   9.451 -0.0643 -0.3235 -0.3221
 2281DECAN   C622796   8.650   3.506   9.587 -0.2600  0.5694 -0.0223
 2281DECAN   C722797   8.714   3.636   9.637  0.0917  0.4681 -0.2070
 2281DECAN   C822798   8.833   3.692   9.558  0.1800  0.0294 -0.3872
 2281DECAN   C922799   8.910   3.808   9.624 -0.0136 -0.1584  0.1650
 2281DECAN  C1022800   8.992   3.892   9.525  0.1248 -0.5389 -0.0437
 2282DECAN   C122801   9.382   6.758   5.065  0.0881  0.0635  0.2272
 2282DECAN   C222802   9.300   6.701   5.182  0.1696  0.5456  0.5219
 2282DECAN   C322803   9.254   6.554   5.180 -0.0575  0.6238 -0.3704
 2282DECAN   C422804   9.207   6.503   5.318 -0.2807  0.0892 -0.6396
 2282DECAN   C522805   9.260   6.584   5.438  0.0905  0.1866 -0.8681
 2282DECAN   C622806   9.205   6.727   5.455  0.3567  0.1770  0.1563
 2282DECAN   C722807   9.241   6.801   5.585  0.5268 -0.2900  0.3785
 2282DECAN   C822808   9.225   6.708   5.706  0.4474 -0.9063 -0.1004
 2282DECAN   C922809   9.258   6.766   5.845 -0.6058  0.2119 -0.3036
 2282DECAN  C1022810   9.194   6.706   5.971  0.2731 -0.1128 -0.0007
 2283DECAN   C122811   6.822   2.590  15.097 -0.4925 -0.5511  0.1407
 2283DECAN   C222812   6.719   2.507  15.017 -0.4052 -0.7710  0.2569
 2283DECAN   C322813   6.575   2.501  15.070 -0.5590  0.2762 -0.0135
 2283DECAN   C422814   6.482   2.417  14.981 -0.3918 -0.1966  0.2539
 2283DECAN   C522815   6.546   2.288  14.925 -0.1040  0.1212 -0.1503
 2283DECAN   C622816   6.450   2.183  14.868 -0.3609  0.3268 -0.0988
 2283DECAN   C722817   6.511   2.043  14.846 -0.1535  0.3826  0.1203
 2283DECAN   C822818   6.422   1.936  14.780 -0.0016  0.0939  0.3826
 2283DECAN   C922819   6.503   1.807  14.758 -0.6709 -0.1512 -0.6988
 2283DECAN  C1022820   6.413   1.693  14.708 -0.6008 -0.5423  0.0525
 2284DECAN   C122821   7.593   2.629  12.940  0.4274 -0.4647 -0.0411
 2284DECAN   C222822   7.649   2.689  12.810  0.2814  0.8300  0.4812
 2284DECAN   C322823   7.586   2.810  12.739 -0.2799  0.3457  0.1443
 2284DECAN   C422824   7.657   2.855  12.610 -0.2692 -0.1573 -0.0252
 2284DECAN   C522825   7.584   2.956  12.520 -0.1562 -0.1976 -0.1657
 2284DECAN   C622826   7.676   3.020  12.414 -0.0587  0.4288  0.2900
 2284DECAN   C722827   7.591   3.106  12.319 -0.0726  0.6345  0.4866
 2284DECAN   C822828   7.660   3.184  12.206 -0.1975 -0.0325 -0.0597
 2284DECAN   C922829   7.734   3.298  12.278  0.2280 -0.3035 -0.0614
 2284DECAN  C1022830   7.847   3.350  12.187  0.6839 -0.0636  0.6301
 2285DECAN   C122831   4.459   1.785   9.326  0.2801 -0.7548  0.4363
 2285DECAN   C222832   4.494   1.934   9.306 -0.3064 -0.6482  0.1640
 2285DECAN   C322833   4.515   2.002   9.443  0.2454 -0.6205  0.0692
 2285DECAN   C422834   4.647   1.953   9.505  0.5316  0.4382  0.3154
 2285DECAN   C522835   4.675   2.031   9.635 -0.0334  0.4500  0.4321
 2285DECAN   C622836   4.819   2.013   9.685  0.1148  0.1761 -0.0914
 2285DECAN   C722837   4.847   2.111   9.800 -0.3816  0.4602 -0.2133
 2285DECAN   C822838   4.818   2.259   9.767 -0.0269  0.4720 -0.4866
 2285DECAN   C922839   4.672   2.298   9.734 -0.4757 -0.0184  0.8388
 2285DECAN  C1022840   4.668   2.451   9.717  0.1272 -0.0914 -0.0128
 2286DECAN   C122841   3.670   1.071  13.912 -0.2748 -0.0660 -0.1781
 2286DECAN   C222842   3.745   1.091  14.045 -0.0770  0.0724 -0.3102
 2286DECAN   C322843   3.872   1.177  14.031 -0.3239  0.5552  0.3551
 2286DECAN   C422844   3.929   1.217  14.169 -0.0255 -0.7115  0.6123
 2286DECAN   C522845   3.854   1.334  14.236 -0.4216 -0.1616 -0.7409
 2286DECAN   C622846   3.896   1.371  14.380 -0.8193 -0.1785 -0.6191
 2286DECAN   C722847   3.860   1.260  14.480 -0.6014  0.3822  0.0870
 2286DECAN   C822848   3.934   1.125  14.478  0.0894  0.7571  0.0919
 2286DECAN   C922849   4.087   1.137  14.462  0.1359  0.3812  0.2580
 2286DECAN  C1022850   4.156   0.999  14.452 -0.3415  0.1783 -0.3224
 2287DECAN   C122851   1.883   9.804   6.166 -0.0079 -0.3860  0.0444
 2287DECAN   C222852   1.772   9.730   6.090  0.0745 -0.2135 -0.2419
 2287DECAN   C322853   1.809   9.582   6.072 -0.1643 -0.2959 -0.0636
 2287DECAN   C422854   1.706   9.497   5.995 -0.5736  0.1908 -0.0580
 2287DECAN   C522855   1.779   9.368   5.952  0.2361  0.7117 -0.2675
 2287DECAN   C622856   1.897   9.378   5.853  0.2450 -0.4092 -0.3769
 2287DECAN   C722857   1.958   9.239   5.825 -0.2377 -0.6498 -0.2631
 2287DECAN   C822858   2.096   9.220   5.759  0.0597  0.2660  0.0732
 2287DECAN   C922859   2.147   9.076   5.740 -0.0813  0.2034  0.1722
 2287DECAN  C1022860   2.069   8.980   5.648  0.4280  0.2181 -0.2770
 2288DECAN   C122861   4.039   4.536   8.490 -0.2801  0.1175 -0.3274
 2288DECAN   C222862   3.934   4.647   8.509  0.3019  0.6070  0.0666
 2288DECAN   C322863   3.813   4.637   8.415  0.7908 -0.0461 -0.5060
 2288DECAN   C422864   3.830   4.667   8.265  0.5575  0.6764 -0.3948
 2288DECAN   C522865   3.698   4.691   8.190  0.2520 -0.3909 -0.2076
 2288DECAN   C622866   3.730   4.771   8.063 -0.2916 -0.4025 -0.3565
 2288DECAN   C722867   3.604   4.835   8.002 -0.1186  0.3013  0.0084
 2288DECAN   C822868   3.495   4.739   7.952 -0.2537  0.2721  0.3522
 2288DECAN   C922869   3.418   4.659   8.059 -0.2818 -0.2797 -0.0721
 2288DECAN  C1022870   3.333   4.540   8.009 -0.4218 -0.1829 -0.0663
 2289DECAN   C122871   7.269   1.920   8.553 -0.5361 -0.2375 -0.2139
 2289DECAN   C222872   7.317   1.974   8.417 -0.2779  0.3276  0.0943
 2289DECAN   C322873   7.245   1.920   8.292 -0.2986  0.4038  0.0750
 2289DECAN   C422874   7.298   1.941   8.148 -0.0918  0.1864  0.1189
 2289DECAN   C522875   7.195   1.963   8.036  0.0064 -0.1850 -0.0450
 2289DECAN   C622876   7.123   2.099   8.025 -0.0106 -0.2228 -0.3960
 2289DECAN   C722877   7.091   2.136   7.879 -0.2317  0.3886 -0.1961
 2289DECAN   C822878   6.993   2.255   7.873 -0.5288  0.1666  0.2112
 2289DECAN   C922879   7.067   2.389   7.892 -0.2079  0.0608 -0.2658
 2289DECAN  C1022880   7.162   2.427   7.777  0.0073  0.7589  0.1365
 2290DECAN   C122881   5.734  10.026  13.351  0.0287 -0.1305 -0.9733
 2290DECAN   C222882   5.620   9.923  13.366 -0.2721  0.3940  0.5546
 2290DECAN   C322883   5.566   9.879  13.228  0.6009 -0.3911  0.4557
 2290DECAN   C422884   5.475   9.755  13.239 -0.0459  0.0487  0.1383
 2290DECAN   C522885   5.530   9.629  13.309 -0.2423  0.0808  0.3497
 2290DECAN   C622886   5.610   9.654  13.438  0.0196  0.4360  0.1206
 2290DECAN   C722887   5.682   9.528  13.488  0.2620  0.3799 -0.3709
 2290DECAN   C822888   5.731   9.558  13.631  0.1713 -0.1295 -0.2305
 2290DECAN   C922889   5.825   9.453  13.692  0.2332 -0.0001 -0.1055
 2290DECAN  C1022890   5.955   9.467  13.611  0.0544 -0.0129 -0.3968
 2291DECAN   C122891   2.726   8.067   5.798  0.2272  0.3829 -0.0199
 2291DECAN   C222892   2.712   8.148   5.928 -0.3772 -0.2821  0.3403
 2291DECAN   C322893   2.585   8.132   6.013 -0.6394  0.6002  0.1202
 2291DECAN   C422894   2.600   8.207   6.147  0.2140  0.6249  0.0150
 2291DECAN   C522895   2.488   8.181   6.249  0.6048 -0.2033  0.2383
 2291DECAN   C622896   2.344   8.205   6.200  0.5669  0.0007  0.4449
 2291DECAN   C722897   2.301   8.111   6.086  0.2326  0.4451  0.2044
 2291DECAN   C822898   2.156   8.129   6.036  0.2526  0.3268  0.1040
 2291DECAN   C922899   2.124   8.040   5.914 -0.0476 -0.0270  0.4396
 2291DECAN  C1022900   1.977   8.035   5.869 -0.0521 -0.2307  0.4742
 2292DECAN   C122901   5.864   3.129   9.457  0.3698  0.0864  0.4069
 2292DECAN   C222902   5.756   3.189   9.550 -0.2455 -0.1453 -0.1534
 2292DECAN   C322903   5.828   3.277   9.653 -0.3959 -0.4028  0.1742
 2292DECAN   C422904   5.932   3.208   9.743  0.1791  0.4963  0.2141
 2292DECAN   C522905   6.062   3.276   9.790  0.1317  0.5066  0.3289
 2292DECAN   C622906   6.046   3.389   9.894 -0.2533  0.4502  0.3311
 2292DECAN   C722907   6.183   3.436   9.944 -0.0851 -0.1585  0.4423
 2292DECAN   C822908   6.173   3.580   9.996 -0.1500 -0.0317  0.0750
 2292DECAN   C922909   6.309   3.631  10.048 -0.2581  0.3110  0.0282
 2292DECAN  C1022910   6.308   3.763  10.128  0.0502  0.7521 -0.6923
 2293DECAN   C122911   3.960   0.081  14.446 -0.3440  0.1653  0.4392
 2293DECAN   C222912   3.903  11.201  14.374 -0.5583  0.3973  0.2083
 2293DECAN   C322913   3.914  11.065  14.445  0.1234  0.2171 -0.2332
 2293DECAN   C422914   3.809  10.963  14.395  0.1870 -0.2143  0.5075
 2293DECAN   C522915   3.834  10.815  14.432  0.2663 -0.4186 -0.3553
 2293DECAN   C622916   3.818  10.794  14.583  0.3127 -0.1501 -0.3126
 2293DECAN   C722917   3.840  10.647  14.624  0.5484  0.0159  0.1616
 2293DECAN   C822918   3.792  10.588  14.758  0.1059  0.0298  0.0112
 2293DECAN   C922919   3.835  10.440  14.766  0.2685  0.0946  0.3534
 2293DECAN  C1022920   3.790  10.357  14.888 -0.0297 -0.3432 -0.0554
 2294DECAN   C122921   9.059   8.414  10.332 -0.3902  0.3409 -0.2878
 2294DECAN   C222922   8.978   8.296  10.389 -0.0396  0.4018  0.3411
 2294DECAN   C322923   8.840   8.281  10.323  0.2544  0.2886 -0.2535
 2294DECAN   C422924   8.725   8.196  10.380  0.3823 -0.0517 -0.4973
 2294DECAN   C522925   8.591   8.199  10.304  0.2451 -0.3598 -0.2691
 2294DECAN   C622926   8.485   8.099  10.353  0.2704 -0.0280  0.4700
 2294DECAN   C722927   8.531   7.952  10.352 -0.3089 -0.2096  0.3813
 2294DECAN   C822928   8.629   7.940  10.470  0.0195 -0.1745  0.1126
 2294DECAN   C922929   8.692   7.800  10.482  0.0303 -0.1417  0.4628
 2294DECAN  C1022930   8.754   7.776  10.620 -0.3394 -0.3311  0.5958
 2295DECAN   C122931   4.974   0.014   7.922  0.6973  0.0856  0.0491
 2295DECAN   C222932   4.928   0.129   7.831 -0.1654  0.0510  0.4340
 2295DECAN   C322933   4.873   0.247   7.913  0.0744  0.3359  0.1906
 2295DECAN   C422934   4.734   0.219   7.974  0.0323  0.1710  0.0191
 2295DECAN   C522935   4.680   0.330   8.066 -0.2171 -0.0673  0.1607
 2295DECAN   C622936   4.789   0.356   8.172 -0.2033  0.0001  0.1289
 2295DECAN   C722937   4.919   0.421   8.118 -0.3439  0.4213  0.2952
 2295DECAN   C822938   5.017   0.433   8.236 -0.4464  0.1949  0.4067
 2295DECAN   C922939   5.110   0.555   8.219 -0.1461 -0.0338  0.3815
 2295DECAN  C1022940   5.052   0.694   8.254  0.0545  0.1032  0.1714
 2296DECAN   C122941   7.388   3.620   9.444 -0.5450 -0.0096 -0.0547
 2296DECAN   C222942   7.346   3.532   9.563 -0.3369  0.2246  0.1938
 2296DECAN   C322943   7.470   3.510   9.652 -0.1838 -0.4078 -0.1717
 2296DECAN   C422944   7.439   3.440   9.786 -0.0711  0.3505  0.2557
 2296DECAN   C522945   7.559   3.425   9.882 -0.1273 -0.1224  0.2565
 2296DECAN   C622946   7.576   3.533   9.990  0.3734 -0.1521  0.2072
 2296DECAN   C722947   7.710   3.545  10.065  0.4387  0.4302 -0.0003
 2296DECAN   C822948   7.720   3.668  10.157 -0.1439  0.3872  0.1186
 2296DECAN   C922949   7.605   3.684  10.259  0.0661  0.0472  0.4087
 2296DECAN  C1022950   7.633   3.814  10.336 -0.0601  0.3041  0.0234
 2297DECAN   C122951   2.245   2.289   9.591 -0.4027 -0.8230  0.3416
 2297DECAN   C222952   2.191   2.202   9.705 -0.3652 -0.5164  0.5949
 2297DECAN   C322953   2.150   2.286   9.828 -0.4986  0.2387  0.0416
 2297DECAN   C422954   2.096   2.204   9.946  0.1594  0.1437  0.2842
 2297DECAN   C522955   2.168   2.070   9.971 -0.1329 -0.0475  0.1134
 2297DECAN   C622956   2.147   1.962   9.863  0.4153 -0.2610  0.2200
 2297DECAN   C722957   2.212   1.826   9.897  0.0415 -0.3532  0.5797
 2297DECAN   C822958   2.131   1.726   9.812 -0.6763  0.5366  0.1899
 2297DECAN   C922959   2.181   1.582   9.790  0.3885  1.0116 -0.5732
 2297DECAN  C1022960   2.074   1.498   9.719  0.4171  0.2126  0.3072
 2298DECAN   C122961   6.599   0.886  11.715 -1.1225 -0.0074 -0.6748
 2298DECAN   C222962   6.493   0.940  11.813 -0.4094 -0.3745  0.3200
 2298DECAN   C322963   6.511   1.088  11.852  0.5861 -0.2427 -0.5843
 2298DECAN   C422964   6.644   1.132  11.916  0.1156 -0.2105  0.3973
 2298DECAN   C522965   6.654   1.282  11.953  0.4044 -0.1663  0.1431
 2298DECAN   C622966   6.798   1.330  11.982  0.3317  0.1444 -0.0081
 2298DECAN   C722967   6.815   1.481  12.004 -0.3890  0.1862  0.2870
 2298DECAN   C822968   6.961   1.527  11.987 -0.4785  0.2931 -0.2250
 2298DECAN   C922969   7.004   1.658  12.056 -0.1813 -0.0081  0.1668
 2298DECAN  C1022970   7.157   1.681  12.057 -0.1642 -0.1297  0.3874
 2299DECAN   C122971   9.791   2.928   7.487  0.1324 -0.4730 -0.2759
 2299DECAN   C222972   9.637   2.926   7.489  0.1274  0.1057  0.1611
 2299DECAN   C322973   9.578   2.785   7.509 -0.1038  0.1753 -0.0204
 2299DECAN   C422974   9.424   2.771   7.517 -0.0780 -0.1780 -0.1602
 2299DECAN   C522975   9.372   2.626   7.532  0.0658 -0.1180  0.9816
 2299DECAN   C622976   9.219   2.623   7.524  0.1115 -0.0400 -0.0029
 2299DECAN   C722977   9.157   2.493   7.578 -0.1715  0.0360 -0.1393
 2299DECAN   C822978   9.160   2.493   7.732  0.1763  0.3015 -0.1428
 2299DECAN   C922979   9.037   2.572   7.782  0.3789  0.4691  0.0927
 2299DECAN  C1022980   9.009   2.575   7.933  0.4702  0.1105  0.1163
 2300DECAN   C122981   3.333   7.435   8.697 -0.1933 -0.5360  0.8384
 2300DECAN   C222982   3.179   7.443   8.710 -0.3198 -0.2630 -0.6784
 2300DECAN   C322983   3.111   7.334   8.795  0.7657  0.0236  0.5912
 2300DECAN   C422984   3.136   7.189   8.751 -0.4145 -0.1231  0.3772
 2300DECAN   C522985   3.032   7.091   8.809 -0.0555 -0.8786 -0.2298
 2300DECAN   C622986   2.884   7.108   8.770  0.1444  0.4221 -0.4774
 2300DECAN   C722987   2.791   7.001   8.829  0.5830  0.2527 -0.0838
 2300DECAN   C822988   2.668   6.961   8.745  0.7990 -0.3243 -0.1365
 2300DECAN   C922989   2.586   6.846   8.805  0.1776  0.1967  0.0266
 2300DECAN  C1022990   2.461   6.798   8.728 -0.0573  0.1847  0.4083
 2301DECAN   C122991   8.687   6.410   5.084  0.2326  0.1764  0.4268
 2301DECAN   C222992   8.829   6.459   5.120  0.3573  0.4601 -0.4207
 2301DECAN   C322993   8.860   6.608   5.094 -0.4201  0.6427 -0.3475
 2301DECAN   C422994   8.804   6.690   5.212 -0.0983 -0.2241  0.4236
 2301DECAN   C522995   8.786   6.841   5.192 -0.3742 -0.3079  0.0220
 2301DECAN   C622996   8.698   6.920   5.290 -0.0076  0.2633 -0.1031
 2301DECAN   C722997   8.698   7.074   5.280 -0.2494  0.2430 -0.4246
 2301DECAN   C822998   8.595   7.148   5.369 -0.0762 -0.1966  0.1483
 2301DECAN   C922999   8.587   7.301   5.369 -0.6656 -0.2246  0.0932
 2301DECAN  C1023000   8.465   7.348   5.450 -0.7326 -0.0062 -0.1327
 2302DECAN   C123001   3.033   5.488   8.103  0.3426 -0.1334  0.4265
 2302DECAN   C223002   3.128   5.368   8.122  0.5250 -0.0879 -0.1622
 2302DECAN   C323003   3.049   5.237   8.143  0.1804  0.1342 -0.0681
 2302DECAN   C423004   3.099   5.148   8.257  0.1363  0.1192 -0.0606
 2302DECAN   C523005   3.231   5.074   8.229 -0.2641 -0.7882  0.4069
 2302DECAN   C623006   3.225   5.001   8.094  0.1843 -0.1136  0.0152
 2302DECAN   C723007   3.122   4.886   8.098  0.1625 -0.1111 -0.3760
 2302DECAN   C823008   3.084   4.815   7.967 -0.2585  0.2446 -0.4516
 2302DECAN   C923009   2.961   4.724   7.984 -0.1726  0.1153 -0.5222
 2302DECAN  C1023010   2.926   4.621   7.875  0.3600 -0.0669 -0.5279
 2303DECAN   C123011   7.983   2.101   5.513 -0.3443 -0.1369  0.3420
 2303DECAN   C223012   7.844   2.131   5.572 -0.6117 -0.4996 -0.0900
 2303DECAN   C323013   7.832   2.159   5.724 -0.2738  0.1578 -0.1784
 2303DECAN   C423014   7.874   2.053   5.827 -0.1032  0.2697 -0.1325
 2303DECAN   C523015   8.018   1.999   5.822 -0.4096 -0.5442 -0.3266
 2303DECAN   C623016   8.055   1.899   5.933 -0.3737  0.0656  0.2147
 2303DECAN   C723017   8.188   1.823   5.916 -0.5537 -0.1914 -0.0474
 2303DECAN   C823018   8.244   1.731   6.025  0.0895  0.1553 -0.0825
 2303DECAN   C923019   8.382   1.673   5.988  0.6433  1.1931  0.3108
 2303DECAN  C1023020   8.455   1.631   6.116  0.1043  0.1304  0.2783
 2304DECAN   C123021   1.629   3.627  10.957 -0.1151 -0.1979  0.0197
 2304DECAN   C223022   1.617   3.756  10.874  0.2414 -0.4570 -0.4419
 2304DECAN   C323023   1.745   3.780  10.791  0.0194 -0.0944 -0.6856
 2304DECAN   C423024   1.784   3.925  10.755 -0.0530  0.2174  0.4485
 2304DECAN   C523025   1.906   3.967  10.672 -0.2260  0.0808  0.1250
 2304DECAN   C623026   1.947   4.116  10.671  0.1614 -0.0237 -0.4155
 2304DECAN   C723027   1.835   4.212  10.628  0.1203 -0.0089 -0.2773
 2304DECAN   C823028   1.885   4.357  10.630  0.0252  0.0228 -0.1943
 2304DECAN   C923029   1.912   4.401  10.775  0.5197  0.0790 -0.3014
 2304DECAN  C1023030   1.787   4.408  10.865  0.6315 -0.5491 -0.0916
 2305DECAN   C123031   8.201   5.620  15.083 -0.2168 -0.4109 -0.1558
 2305DECAN   C223032   8.231   5.766  15.042  0.5218 -0.4795  0.1349
 2305DECAN   C323033   8.304   5.852  15.147 -0.4295  0.2883  0.1819
 2305DECAN   C423034   8.337   5.996  15.106 -0.1484  0.2591  0.2940
 2305DECAN   C523035   8.239   6.044  14.997  0.0379 -0.2415 -0.0994
 2305DECAN   C623036   8.094   6.047  15.049  0.0915 -0.0524  0.0427
 2305DECAN   C723037   8.003   6.127  14.954 -0.2136 -0.7167 -0.2284
 2305DECAN   C823038   7.860   6.131  15.011  0.2180 -0.1590  0.8406
 2305DECAN   C923039   7.851   6.238  15.122  0.3722  0.2270  0.4838
 2305DECAN  C1023040   7.701   6.264  15.147  0.2228  0.0474 -0.1913
 2306DECAN   C123041   5.783   6.549   5.250 -0.0276 -0.3365 -0.5638
 2306DECAN   C223042   5.647   6.550   5.323 -0.0053 -0.2047 -0.5235
 2306DECAN   C323043   5.634   6.671   5.418  0.0077 -0.5352 -0.0990
 2306DECAN   C423044   5.506   6.652   5.501  0.1006  0.5596  0.3024
 2306DECAN   C523045   5.491   6.774   5.595  0.1131  0.6771  0.1534
 2306DECAN   C623046   5.355   6.757   5.665 -0.0167 -0.3262 -0.3155
 2306DECAN   C723047   5.342   6.854   5.785  0.1341 -0.3221 -0.3026
 2306DECAN   C823048   5.216   6.840   5.872  0.1346  0.1281 -0.2285
 2306DECAN   C923049   5.212   6.910   6.009  0.2947  0.0955 -0.2077
 2306DECAN  C1023050   5.074   6.906   6.076  0.3779 -0.3820 -0.0605
 2307DECAN   C123051   8.772   8.695  14.541  0.4862  0.5002  0.4844
 2307DECAN   C223052   8.672   8.596  14.602 -0.1198  0.5082 -0.4681
 2307DECAN   C323053   8.733   8.455  14.597 -0.0692  0.4705  0.8485
 2307DECAN   C423054   8.659   8.356  14.688  0.0066 -0.3285  0.0514
 2307DECAN   C523055   8.690   8.207  14.660 -0.0477 -0.2382 -0.5021
 2307DECAN   C623056   8.839   8.172  14.683 -0.1704  0.0334  0.8325
 2307DECAN   C723057   8.861   8.020  14.692  0.0650  0.0040 -0.1674
 2307DECAN   C823058   9.006   7.981  14.728 -0.0252  0.0020  0.1952
 2307DECAN   C923059   9.028   7.829  14.739  0.0936 -0.0016 -0.0851
 2307DECAN  C1023060   9.008   7.754  14.606 -0.3889 -0.1304  0.0566
 2308DECAN   C123061   9.246   1.828  11.041  0.2785  0.9818 -0.3799
 2308DECAN   C223062   9.163   1.914  11.138  0.1054  0.5150 -0.1085
 2308DECAN   C323063   9.107   2.039  11.067 -0.4011  0.3358 -0.0329
 2308DECAN   C423064   9.235   2.116  11.030 -0.1029  0.0974  0.4911
 2308DECAN   C523065   9.228   2.251  10.956  0.0250  0.0836  0.4537
 2308DECAN   C623066   9.367   2.299  10.911 -0.0329 -0.4530 -0.3319
 2308DECAN   C723067   9.424   2.230  10.786  0.3033  0.0928 -0.4842
 2308DECAN   C823068   9.572   2.266  10.763  0.3908  0.3253  0.3872
 2308DECAN   C923069   9.630   2.226  10.626 -0.3838  0.7376 -0.0650
 2308DECAN  C1023070   9.780   2.250  10.604 -0.2719 -0.0917 -0.2285
 2309DECAN   C123071   4.832   5.478   4.611  0.2525 -0.4766  0.2632
 2309DECAN   C223072   4.825   5.588   4.504 -0.5398 -0.1160  0.6777
 2309DECAN   C323073   4.723   5.693   4.551 -0.4144  0.3639 -0.1084
 2309DECAN   C423074   4.692   5.805   4.450  0.1511 -0.1713 -0.8807
 2309DECAN   C523075   4.579   5.895   4.502  0.9965  0.1146  0.5355
 2309DECAN   C623076   4.543   6.022   4.422  0.0510 -0.6989 -0.3609
 2309DECAN   C723077   4.410   6.089   4.460  0.5043  0.1136 -0.1944
 2309DECAN   C823078   4.374   6.198   4.357 -0.4023 -0.2435 -0.2625
 2309DECAN   C923079   4.237   6.263   4.384 -0.0825  0.0196  0.7736
 2309DECAN  C1023080   4.232   6.407   4.330 -0.2260 -0.3136 -0.1340
 2310DECAN   C123081   6.066  10.734   7.640 -0.7324 -0.3754  0.1917
 2310DECAN   C223082   6.067  10.833   7.758  0.4648  0.3908 -0.4482
 2310DECAN   C323083   6.203  10.843   7.830  0.3117  0.2005 -0.1331
 2310DECAN   C423084   6.205  10.946   7.945  0.2229  0.5966 -0.4850
 2310DECAN   C523085   6.344  10.978   8.002  0.0757 -0.1514  0.3074
 2310DECAN   C623086   6.425  10.850   8.028 -0.4690 -0.4833  0.3691
 2310DECAN   C723087   6.558  10.886   8.096 -0.1731 -0.2713 -0.3163
 2310DECAN   C823088   6.657  10.973   8.016 -0.1328  0.2448  0.2823
 2310DECAN   C923089   6.791  11.003   8.085  0.1424 -0.3118  0.0016
 2310DECAN  C1023090   6.787  11.044   8.234 -0.4326 -0.0345 -0.0851
 2311DECAN   C123091   9.459   9.777   5.136 -0.5149 -0.5050 -0.2379
 2311DECAN   C223092   9.503   9.850   5.008 -0.3917  0.4504  0.3361
 2311DECAN   C323093   9.455   9.769   4.886 -0.0677  0.5141  0.1659
 2311DECAN   C423094   9.301   9.774   4.877 -0.0486  0.2197 -0.3663
 2311DECAN   C523095   9.251   9.689   4.759  0.3063  0.5060 -0.7281
 2311DECAN   C623096   9.097   9.680   4.765  0.3129  0.7734  0.0043
 2311DECAN   C723097   9.031   9.594   4.655 -0.4953  0.0325  1.0459
 2311DECAN   C823098   9.071   9.446   4.636  0.1416  0.3218  0.0597
 2311DECAN   C923099   9.046   9.351   4.755  0.0847 -0.1793 -0.3507
 2311DECAN  C1023100   9.112   9.213   4.745  0.0162 -0.2344 -0.0324
 2312DECAN   C123101   5.691   3.292   8.502 -0.6298 -0.1091  0.4872
 2312DECAN   C223102   5.773   3.330   8.626 -0.2328  0.1844  0.1370
 2312DECAN   C323103   5.827   3.475   8.625  0.4787 -0.0767  0.0109
 2312DECAN   C423104   5.890   3.521   8.757  0.6208 -0.3281  0.0308
 2312DECAN   C523105   5.996   3.632   8.744  0.4342 -0.1877 -0.3060
 2312DECAN   C623106   6.037   3.688   8.882  0.7558 -0.0473 -0.4588
 2312DECAN   C723107   6.125   3.814   8.875  0.1657  0.3956  0.0019
 2312DECAN   C823108   6.136   3.893   9.007  0.2883  0.0159  0.2225
 2312DECAN   C923109   6.102   4.042   8.988  0.5118 -0.0433 -0.7193
 2312DECAN  C1023110   5.951   4.056   8.960  0.5843  0.5414 -0.8328
 2313DECAN   C123111   6.084   0.337   7.397  0.2373  0.1979  0.0666
 2313DECAN   C223112   6.060   0.464   7.313 -0.2261  0.2526  0.2759
 2313DECAN   C323113   6.120   0.590   7.379 -0.4828  0.0300  0.9403
 2313DECAN   C423114   6.094   0.723   7.307  0.4126  0.0432  0.6298
 2313DECAN   C523115   5.952   0.748   7.252  0.7023 -0.2584 -0.2688
 2313DECAN   C623116   5.898   0.649   7.147 -0.3259  0.1964 -0.1818
 2313DECAN   C723117   5.903   0.688   6.998  0.3548  0.3859 -0.1147
 2313DECAN   C823118   6.036   0.659   6.927  0.3180  0.3999 -0.1908
 2313DECAN   C923119   6.037   0.719   6.785  0.1059  0.4030 -0.1904
 2313DECAN  C1023120   6.156   0.682   6.695 -0.0608  0.5494 -0.4715
 2314DECAN   C123121   1.480  10.305   6.457 -0.5676  0.5777 -0.1899
 2314DECAN   C223122   1.560  10.174   6.459 -0.2460  0.7855  0.9871
 2314DECAN   C323123   1.653  10.152   6.338 -0.4949  0.5234  0.8445
 2314DECAN   C423124   1.776  10.243   6.322 -0.1601 -0.0649 -0.0144
 2314DECAN   C523125   1.857  10.210   6.195  0.1628  0.0315  0.1663
 2314DECAN   C623126   1.958  10.319   6.156  0.1433 -0.0269 -0.0480
 2314DECAN   C723127   2.090  10.332   6.234  0.1013 -1.0102  0.1964
 2314DECAN   C823128   2.084  10.355   6.386  0.3772  0.2300  0.0286
 2314DECAN   C923129   2.228  10.363   6.440  0.6001 -0.2536 -0.4902
 2314DECAN  C1023130   2.285  10.225   6.473  0.2744 -0.2819 -0.0346
 2315DECAN   C123131   7.541   7.201   5.084 -0.9497 -0.2444  0.6792
 2315DECAN   C223132   7.582   7.348   5.063  0.2767 -0.7277 -0.5028
 2315DECAN   C323133   7.556   7.394   4.918 -0.1724  0.2774 -0.1129
 2315DECAN   C423134   7.417   7.344   4.874 -0.2551  0.3941  0.0143
 2315DECAN   C523135   7.411   7.372   4.722  0.0877 -0.0174 -0.0759
 2315DECAN   C623136   7.282   7.346   4.643 -0.1728  0.3866  0.2124
 2315DECAN   C723137   7.260   7.450   4.532 -0.1428  0.1176 -0.0480
 2315DECAN   C823138   7.121   7.447   4.465 -0.2267 -0.0580  0.1322
 2315DECAN   C923139   7.017   7.502   4.563  0.1195  0.3867  0.2489
 2315DECAN  C1023140   6.877   7.516   4.501  0.3911  0.5018 -0.3408
 2316DECAN   C123141   2.020   9.732  13.370  0.5238 -0.3027 -0.3472
 2316DECAN   C223142   1.996   9.602  13.292  0.4996 -0.4118 -0.1607
 2316DECAN   C323143   1.963   9.487  13.389  0.2796  0.1638  0.4534
 2316DECAN   C423144   1.919   9.355  13.323  0.3367  0.2327  0.2788
 2316DECAN   C523145   1.927   9.238  13.423  0.0262  0.1178  0.1732
 2316DECAN   C623146   1.882   9.103  13.365  0.0509 -0.1021  0.6609
 2316DECAN   C723147   1.730   9.109  13.341  0.1388 -0.5505 -0.0513
 2316DECAN   C823148   1.675   8.979  13.279 -0.0633 -0.3364 -0.3253
 2316DECAN   C923149   1.532   8.994  13.225 -0.2945  0.3608  0.4523
 2316DECAN  C1023150   1.421   9.015  13.329 -0.5707  0.0168  0.2283
 2317DECAN   C123151   6.569   5.890  14.361  0.4338  0.2654  0.1254
 2317DECAN   C223152   6.459   5.863  14.257 -0.0919  0.3062  0.6678
 2317DECAN   C323153   6.447   5.994  14.178 -0.6014  0.0436  0.3034
 2317DECAN   C423154   6.385   5.971  14.039 -0.0482  0.3963 -0.0056
 2317DECAN   C523155   6.370   6.095  13.948 -0.4504  0.1649 -0.2530
 2317DECAN   C623156   6.295   6.064  13.817 -0.8645  0.1337 -0.0143
 2317DECAN   C723157   6.256   6.195  13.744  0.5783  0.6465  0.1005
 2317DECAN   C823158   6.149   6.168  13.637  0.8896  0.5966 -0.1985
 2317DECAN   C923159   6.124   6.291  13.548  0.1481  0.6886  0.1353
 2317DECAN  C1023160   6.236   6.350  13.460  0.5821  0.1103  0.2936
 2318DECAN   C123161   5.332   5.570   4.532 -0.0701 -0.4117  0.1656
 2318DECAN   C223162   5.347   5.445   4.443 -0.5701 -0.3237 -0.0412
 2318DECAN   C323163   5.438   5.335   4.499  0.3287  0.2687 -0.3214
 2318DECAN   C423164   5.501   5.233   4.402 -0.1064 -0.2101 -0.1040
 2318DECAN   C523165   5.595   5.133   4.472 -0.5093 -0.3232  0.2780
 2318DECAN   C623166   5.697   5.081   4.369 -0.0966 -0.0457  0.5477
 2318DECAN   C723167   5.803   4.999   4.445  0.1725 -0.0259  0.1932
 2318DECAN   C823168   5.910   5.079   4.521  0.1860  0.3878 -0.2579
 2318DECAN   C923169   5.851   5.162   4.637  0.5408  0.4736 -0.1395
 2318DECAN  C1023170   5.957   5.235   4.722  0.5095  0.2482  0.0946
 2319DECAN   C123171   4.221   7.650   4.562 -0.1510 -0.1592  0.1383
 2319DECAN   C223172   4.370   7.611   4.548 -0.1120  0.1049 -0.1841
 2319DECAN   C323173   4.427   7.587   4.688  0.3445 -0.1292 -0.4101
 2319DECAN   C423174   4.412   7.701   4.791  1.0458 -0.1677 -0.2562
 2319DECAN   C523175   4.484   7.681   4.925  0.1080  0.0446  0.2823
 2319DECAN   C623176   4.465   7.801   5.021 -0.2514 -0.2779  0.6172
 2319DECAN   C723177   4.520   7.778   5.163  0.5615 -0.5174  0.2682
 2319DECAN   C823178   4.432   7.697   5.260 -0.0851 -0.2410 -0.0873
 2319DECAN   C923179   4.494   7.696   5.400 -0.0493 -0.3977 -0.1048
 2319DECAN  C1023180   4.405   7.604   5.486  0.5399 -0.9759 -0.1041
 2320DECAN   C123181   5.101   6.430   7.137 -0.0540  0.2207  0.1073
 2320DECAN   C223182   5.158   6.486   7.005 -0.4549  0.4138  0.0151
 2320DECAN   C323183   5.250   6.608   7.026 -0.1880  0.2167 -0.0160
 2320DECAN   C423184   5.335   6.640   6.901  0.0274 -0.1202  0.0427
 2320DECAN   C523185   5.406   6.773   6.933 -0.1923  0.0562 -0.2008
 2320DECAN   C623186   5.504   6.803   6.819  0.2380 -0.4356  0.0356
 2320DECAN   C723187   5.611   6.911   6.840 -0.1053 -0.1449  0.2948
 2320DECAN   C823188   5.568   7.049   6.892  0.0817 -0.2083  0.6198
 2320DECAN   C923189   5.689   7.129   6.947  0.2165  0.4847 -0.6583
 2320DECAN  C1023190   5.645   7.270   6.990 -0.1938  0.2768 -0.3891
 2321DECAN   C123191   8.841  10.799  14.407 -0.1608  0.0850 -0.2343
 2321DECAN   C223192   8.990  10.783  14.370 -0.0008  0.1692  0.3700
 2321DECAN   C323193   9.091  10.844  14.469  0.7321  0.6184 -0.6353
 2321DECAN   C423194   9.097  10.998  14.468 -0.0444  0.6898  1.3107
 2321DECAN   C523195   8.967  11.063  14.419  0.0217  0.1934  0.4507
 2321DECAN   C623196   8.952  11.216  14.428 -0.1457  0.1748  0.5014
 2321DECAN   C723197   8.828   0.037  14.364  0.2045  0.1169 -0.2403
 2321DECAN   C823198   8.827   0.190  14.378  0.2071  0.0899  0.0598
 2321DECAN   C923199   8.828   0.241  14.523  0.4513  0.0451  0.0751
 2321DECAN  C1023200   8.852   0.392  14.538 -0.5872  0.3019 -0.7136
 2322DECAN   C123201   3.194  10.717   9.761  0.7242 -0.5620 -0.0649
 2322DECAN   C223202   3.304  10.803   9.696 -0.1467  0.4181 -0.2620
 2322DECAN   C323203   3.400  10.715   9.615 -0.3723 -0.0400 -0.0359
 2322DECAN   C423204   3.512  10.805   9.560  0.2674 -0.5426  0.4288
 2322DECAN   C523205   3.590  10.892   9.660  0.0067  0.2260 -0.0307
 2322DECAN   C623206   3.504  11.001   9.727  0.0944 -0.1558  0.7163
 2322DECAN   C723207   3.579  11.117   9.795  0.0992  0.4153 -0.2424
 2322DECAN   C823208   3.488  11.220   9.865 -0.4424 -0.0492 -0.2486
 2322DECAN   C923209   3.431  11.177  10.001 -0.1587 -0.7595 -0.3474
 2322DECAN  C1023210   3.346   0.047  10.060  0.1638 -0.5403 -0.3001
 2323DECAN   C123211   5.625   2.621  11.048 -0.1699  0.4413 -0.1253
 2323DECAN   C223212   5.683   2.524  10.944  0.0531  0.1717  0.2459
 2323DECAN   C323213   5.836   2.533  10.932  0.0342 -0.0290 -0.1929
 2323DECAN   C423214   5.896   2.488  11.066  0.2856  0.1338 -0.2496
 2323DECAN   C523215   6.047   2.510  11.089  0.1966  0.7692 -0.2554
 2323DECAN   C623216   6.102   2.439  11.214 -0.6105  0.3948 -0.1063
 2323DECAN   C723217   6.249   2.460  11.253 -0.5144 -0.6921  0.1494
 2323DECAN   C823218   6.297   2.379  11.374  0.4118 -0.0071  0.2533
 2323DECAN   C923219   6.449   2.397  11.393  0.5256 -0.5599 -0.0943
 2323DECAN  C1023220   6.537   2.371  11.269  0.2245  0.3490 -0.5108
 2324DECAN   C123221   6.962   7.379   6.488  0.0910 -0.2816  0.3574
 2324DECAN   C223222   7.071   7.438   6.396  0.1048 -0.0438  0.5276
 2324DECAN   C323223   7.156   7.334   6.321  0.2243  0.3331  0.1339
 2324DECAN   C423224   7.294   7.385   6.277  0.0898  0.3270 -0.2941
 2324DECAN   C523225   7.371   7.277   6.199  0.0664  0.1932 -0.1302
 2324DECAN   C623226   7.491   7.348   6.135 -0.0187  0.2784 -0.1952
 2324DECAN   C723227   7.554   7.262   6.024 -0.0985 -0.3565  0.2460
 2324DECAN   C823228   7.686   7.323   5.971  0.0034 -0.5417  0.2852
 2324DECAN   C923229   7.797   7.319   6.077  0.2392  0.0067  0.0594
 2324DECAN  C1023230   7.931   7.380   6.029  0.0529 -0.0118 -0.4927
 2325DECAN   C123231   7.601   0.250   5.664 -0.0478 -0.4246 -0.2130
 2325DECAN   C223232   7.617   0.098   5.640 -0.1217 -0.3620 -0.6535
 2325DECAN   C323233   7.613   0.003   5.761  0.9081 -0.0529 -0.3703
 2325DECAN   C423234   7.632  11.102   5.715 -0.3345 -0.2040 -0.4403
 2325DECAN   C523235   7.660  11.021   5.843  0.1082  0.4750 -0.1033
 2325DECAN   C623236   7.542  11.022   5.942 -0.0144  0.3944 -0.2473
 2325DECAN   C723237   7.512  11.166   5.987 -0.3180  0.2394  0.0506
 2325DECAN   C823238   7.407  11.185   6.098 -0.3850  0.3635 -0.0332
 2325DECAN   C923239   7.262  11.152   6.059 -0.3431 -0.1560  0.2315
 2325DECAN  C1023240   7.232  11.197   5.914 -0.6207 -0.0518  0.3200
 2326DECAN   C123241   3.488   8.397   6.057  0.0983 -0.2969 -0.2858
 2326DECAN   C223242   3.355   8.470   6.031  0.1511 -0.2260 -0.3581
 2326DECAN   C323243   3.371   8.623   6.042  1.2201 -0.2927 -0.8295
 2326DECAN   C423244   3.260   8.713   5.984  0.6775 -0.0424  0.5509
 2326DECAN   C523245   3.274   8.865   6.005 -0.5108  0.0393  0.8056
 2326DECAN   C623246   3.145   8.939   5.965 -0.5609 -0.3868  0.1777
 2326DECAN   C723247   3.130   9.071   6.043  0.4781  0.0260 -0.3031
 2326DECAN   C823248   3.074   9.168   5.937  0.2894  0.0265 -0.2026
 2326DECAN   C923249   3.047   9.311   5.987 -0.2036 -0.0447 -0.2598
 2326DECAN  C1023250   3.010   9.407   5.873  0.6848  0.0603 -0.4625
 2327DECAN   C123251  10.306   0.352   7.419  0.5402  0.4681  0.1715
 2327DECAN   C223252  10.233   0.291   7.540  0.0539 -0.5824 -0.6395
 2327DECAN   C323253  10.319   0.231   7.653  0.0237  0.8109  0.1462
 2327DECAN   C423254  10.239   0.213   7.782 -0.3700  0.1476 -0.1855
 2327DECAN   C523255  10.272   0.313   7.895 -0.4480 -0.2389  0.1820
 2327DECAN   C623256  10.418   0.317   7.941 -0.3499 -0.2586 -0.1269
 2327DECAN   C723257  10.446   0.387   8.076 -0.5387  0.3125 -0.3812
 2327DECAN   C823258  10.595   0.410   8.108 -0.5703  0.4951 -0.3596
 2327DECAN   C923259  10.670   0.511   8.019  0.4877 -0.0054 -0.0542
 2327DECAN  C1023260  10.817   0.530   8.061  0.4331  0.3812 -0.0306
 2328DECAN   C123261   2.313   9.561  13.123  0.6492 -0.1031 -0.9483
 2328DECAN   C223262   2.329   9.443  13.025 -0.2992 -0.8875 -0.1803
 2328DECAN   C323263   2.397   9.315  13.076 -0.3350 -0.9399 -0.2639
 2328DECAN   C423264   2.332   9.288  13.213  0.2041  0.0023  0.1885
 2328DECAN   C523265   2.391   9.161  13.276  0.0858 -0.0165  0.2615
 2328DECAN   C623266   2.322   9.137  13.412 -0.4990 -0.1767 -0.0631
 2328DECAN   C723267   2.397   9.064  13.525  0.0316  0.5822  0.0786
 2328DECAN   C823268   2.497   9.149  13.606 -0.4699  0.6621  0.6166
 2328DECAN   C923269   2.585   9.070  13.704 -0.1270  0.3191  0.0318
 2328DECAN  C1023270   2.718   9.014  13.648 -0.0749  0.0069  0.4629
 2329DECAN   C123271   5.411   3.507  14.712 -0.4354 -0.1012 -0.3348
 2329DECAN   C223272   5.413   3.399  14.822  0.5377  0.4937  0.2531
 2329DECAN   C323273   5.462   3.262  14.772 -0.5711  0.2419 -0.1897
 2329DECAN   C423274   5.497   3.164  14.885 -0.0243  0.3440 -0.2655
 2329DECAN   C523275   5.516   3.018  14.838 -0.2439  0.0327  0.5829
 2329DECAN   C623276   5.513   2.909  14.946 -0.2783 -0.4740  0.0759
 2329DECAN   C723277   5.630   2.908  15.046 -0.1264  0.3519 -0.0846
 2329DECAN   C823278   5.760   2.878  14.970 -0.1905  0.2994 -0.1746
 2329DECAN   C923279   5.889   2.869  15.054 -0.1320  0.0987 -0.2852
 2329DECAN  C1023280   6.026   2.842  14.987  0.0425 -0.3387  0.2457
 2330DECAN   C123281   3.354   4.986  13.604  0.3152 -0.6635  0.3409
 2330DECAN   C223282   3.478   4.960  13.691  0.6948  0.0294  0.0132
 2330DECAN   C323283   3.474   5.024  13.831 -0.1454  0.2574 -0.1068
 2330DECAN   C423284   3.341   4.999  13.904 -0.1723 -0.4096 -0.3768
 2330DECAN   C523285   3.301   4.851  13.915  0.5832 -0.5655  0.3242
 2330DECAN   C623286   3.194   4.821  14.021  0.3401 -0.3625  0.1382
 2330DECAN   C723287   3.181   4.673  14.063 -0.5972 -0.4275 -0.3566
 2330DECAN   C823288   3.078   4.657  14.177 -0.6451 -0.2912 -0.3792
 2330DECAN   C923289   3.073   4.513  14.231  0.0812  0.0430  0.6192
 2330DECAN  C1023290   2.987   4.510  14.359 -0.1290  0.0383  0.4792
 2331DECAN   C123291   5.365   4.392   5.787  0.1015  0.0380 -0.0248
 2331DECAN   C223292   5.243   4.321   5.847  0.0459  0.3592  0.2449
 2331DECAN   C323293   5.252   4.278   5.995 -0.5332 -0.1949  0.1245
 2331DECAN   C423294   5.314   4.141   6.031  0.5123  0.1149 -0.4454
 2331DECAN   C523295   5.312   4.120   6.184 -0.7684 -0.1621 -0.4821
 2331DECAN   C623296   5.426   4.027   6.231 -0.2585  0.6232 -0.1410
 2331DECAN   C723297   5.448   4.035   6.383 -0.4325  0.3475 -0.1007
 2331DECAN   C823298   5.325   4.090   6.456  0.0848  0.4646  0.6936
 2331DECAN   C923299   5.223   3.975   6.461  0.2475  0.2950  0.0931
 2331DECAN  C1023300   5.083   4.006   6.517 -0.2343 -0.2537 -0.7846
 2332DECAN   C123301   4.353   5.532   8.952  0.2074  0.1830  0.2273
 2332DECAN   C223302   4.306   5.425   9.052 -0.2559 -0.2602 -0.4612
 2332DECAN   C323303   4.373   5.427   9.191 -0.5455 -0.1185 -0.3235
 2332DECAN   C423304   4.309   5.325   9.287 -0.0906 -0.1197 -0.0171
 2332DECAN   C523305   4.401   5.300   9.408  0.1548 -0.4981 -0.2807
 2332DECAN   C623306   4.325   5.213   9.508  0.1060  0.1329  0.2395
 2332DECAN   C723307   4.203   5.280   9.575 -0.6392 -0.3563 -0.6058
 2332DECAN   C823308   4.131   5.202   9.686  0.2119 -0.4447 -0.1036
 2332DECAN   C923309   4.219   5.086   9.735  0.5457  0.0311  0.4296
 2332DECAN  C1023310   4.241   4.974   9.633 -1.0536  0.4855 -0.4449
 2333DECAN   C123311   5.524   3.676  13.498 -0.6638  0.5273  0.0464
 2333DECAN   C223312   5.541   3.579  13.617 -0.5500  0.4854 -0.0038
 2333DECAN   C323313   5.413   3.520  13.679 -0.6496  0.6824 -0.0215
 2333DECAN   C423314   5.421   3.433  13.806  0.3200  0.1389 -0.4466
 2333DECAN   C523315   5.284   3.419  13.876  0.5190 -0.1745 -0.1164
 2333DECAN   C623316   5.230   3.551  13.934  0.2384 -0.4466  0.2408
 2333DECAN   C723317   5.080   3.561  13.969  0.3349 -0.3067  0.6234
 2333DECAN   C823318   5.020   3.689  14.028  0.4218 -0.2307  0.5470
 2333DECAN   C923319   4.881   3.676  14.095  0.2188 -0.3133  0.1153
 2333DECAN  C1023320   4.768   3.662  13.992 -0.0402  0.8771  0.2272
 2334DECAN   C123321   5.176   4.543  11.139 -0.8522  0.4650 -0.0303
 2334DECAN   C223322   5.232   4.559  10.997 -0.1644  0.1031  0.1939
 2334DECAN   C323323   5.302   4.432  10.945  0.2496  0.3897  0.0493
 2334DECAN   C423324   5.408   4.462  10.837 -0.0596  0.5115 -0.2193
 2334DECAN   C523325   5.545   4.496  10.897  0.0842  0.5305 -0.5601
 2334DECAN   C623326   5.664   4.502  10.799  0.2194 -0.1120 -0.4427
 2334DECAN   C723327   5.803   4.528  10.859 -0.1760  0.3088  0.3006
 2334DECAN   C823328   5.802   4.569  11.007  0.0521 -0.0996  0.4159
 2334DECAN   C923329   5.749   4.709  11.046 -0.1562 -0.0337 -0.1068
 2334DECAN  C1023330   5.750   4.721  11.199  1.0753 -0.5043 -0.0599
 2335DECAN   C123331   8.999   8.186  11.918  0.3872  0.2655 -0.0861
 2335DECAN   C223332   8.988   8.292  11.807  0.1511 -0.1983 -0.5116
 2335DECAN   C323333   9.108   8.321  11.716  0.2117  0.1380 -0.3283
 2335DECAN   C423334   9.060   8.360  11.575  0.0337  0.0586 -0.2889
 2335DECAN   C523335   9.172   8.359  11.470  0.1566 -0.1563 -0.1567
 2335DECAN   C623336   9.209   8.217  11.423 -0.2600 -0.2052 -0.3334
 2335DECAN   C723337   9.246   8.115  11.533 -0.1295 -0.2467 -0.4157
 2335DECAN   C823338   9.259   7.970  11.481 -0.4044 -0.6150  0.5271
 2335DECAN   C923339   9.121   7.926  11.429 -0.0751 -0.2361 -0.6923
 2335DECAN  C1023340   9.071   8.008  11.308 -0.3471  0.2019 -0.2840
 2336DECAN   C123341   3.788   8.007  14.354  0.2216  0.3331  0.6622
 2336DECAN   C223342   3.820   7.955  14.495 -0.3909 -0.1973  0.6123
 2336DECAN   C323343   3.922   7.840  14.495 -0.1189  0.0245 -1.0135
 2336DECAN   C423344   4.065   7.897  14.486  0.1863 -0.4542  0.5376
 2336DECAN   C523345   4.181   7.798  14.502  0.4151 -0.1635  0.6742
 2336DECAN   C623346   4.318   7.854  14.458  0.2769 -0.2682  0.1108
 2336DECAN   C723347   4.373   7.934  14.577  0.1366 -0.6090  0.4045
 2336DECAN   C823348   4.493   8.027  14.554  0.0568 -0.5317  0.3017
 2336DECAN   C923349   4.512   8.097  14.690  0.4617 -0.2662  0.1095
 2336DECAN  C1023350   4.378   8.146  14.746 -0.0240 -0.3410 -0.9576
 2337DECAN   C123351   4.128   7.525  14.119  0.7824 -0.4026 -0.2950
 2337DECAN   C223352   4.231   7.532  14.233  0.1573 -0.1502  0.2590
 2337DECAN   C323353   4.339   7.623  14.173  0.2630 -0.4897 -0.0705
 2337DECAN   C423354   4.467   7.639  14.256  0.2664 -0.0386 -0.1549
 2337DECAN   C523355   4.567   7.746  14.209  0.2730 -0.2190 -0.5562
 2337DECAN   C623356   4.702   7.756  14.283 -0.1269  0.3328  0.1089
 2337DECAN   C723357   4.797   7.867  14.235 -0.3540  0.2804 -0.4602
 2337DECAN   C823358   4.753   8.010  14.270  0.1488  0.2939  0.1292
 2337DECAN   C923359   4.611   8.038  14.217 -0.1245 -0.3579  0.5001
 2337DECAN  C1023360   4.586   8.190  14.217 -0.3695 -0.3947  0.0918
 2338DECAN   C123361   8.159   2.241   9.887  0.2453 -0.2313 -0.4916
 2338DECAN   C223362   8.065   2.192   9.776 -0.0927  0.0909 -0.3507
 2338DECAN   C323363   8.056   2.038   9.775  0.2846  0.0701 -0.7822
 2338DECAN   C423364   8.192   1.967   9.769  0.3982  0.2454 -0.3399
 2338DECAN   C523365   8.183   1.814   9.750  0.0151  0.2919 -0.5460
 2338DECAN   C623366   8.114   1.736   9.863 -0.2826  0.3622 -0.6797
 2338DECAN   C723367   8.137   1.583   9.859 -0.1061  0.3524  0.4254
 2338DECAN   C823368   8.276   1.535   9.906 -0.3538 -0.3406  0.4565
 2338DECAN   C923369   8.322   1.392   9.873  0.2991 -0.0809  0.2196
 2338DECAN  C1023370   8.350   1.352   9.727  0.1159 -0.1217  0.1963
 2339DECAN   C123371   5.648   4.327  12.533  0.3497  0.5074 -0.1969
 2339DECAN   C223372   5.648   4.174  12.516  0.2989  0.4963 -0.1025
 2339DECAN   C323373   5.741   4.102  12.616 -0.2931 -0.1337  0.0003
 2339DECAN   C423374   5.736   3.949  12.610  0.7451 -0.1365 -1.1443
 2339DECAN   C523375   5.842   3.879  12.696 -0.2400 -0.5405 -0.2375
 2339DECAN   C623376   5.982   3.883  12.632 -0.2244  0.0045 -0.1725
 2339DECAN   C723377   6.082   3.780  12.689 -0.5875 -0.3884 -0.2465
 2339DECAN   C823378   6.212   3.781  12.607 -0.0465 -0.7728  0.5996
 2339DECAN   C923379   6.177   3.730  12.466  0.4121 -0.3378  0.3238
 2339DECAN  C1023380   6.128   3.585  12.444 -0.5952  0.0828 -0.2269
 2340DECAN   C123381   7.851   5.417  11.075  0.8859  0.2940 -0.5811
 2340DECAN   C223382   7.750   5.533  11.089  0.4394 -0.1429 -0.0973
 2340DECAN   C323383   7.605   5.504  11.047  0.5713  0.0479 -0.7099
 2340DECAN   C423384   7.499   5.615  11.054  0.2426 -0.3039  0.1392
 2340DECAN   C523385   7.381   5.599  10.955  0.2425 -0.0578  0.0977
 2340DECAN   C623386   7.250   5.678  10.973  0.0853 -0.2626 -0.1482
 2340DECAN   C723387   7.131   5.609  10.903 -0.2309  0.5093 -0.3783
 2340DECAN   C823388   7.115   5.460  10.937 -0.2263  0.6534  0.2653
 2340DECAN   C923389   7.071   5.434  11.082 -0.3703 -0.3034  0.0552
 2340DECAN  C1023390   6.937   5.494  11.128 -0.1788  0.3059 -0.1714
 2341DECAN   C123391   2.823   4.713  15.151 -0.5057 -0.3146  0.0655
 2341DECAN   C223392   2.898   4.584  15.111  0.2268  0.1792 -0.1714
 2341DECAN   C323393   2.838   4.519  14.985 -0.2103 -0.2625  0.2626
 2341DECAN   C423394   2.875   4.371  14.963  0.0540 -0.1195 -0.2719
 2341DECAN   C523395   2.841   4.264  15.069 -0.1892 -0.1295 -0.3588
 2341DECAN   C623396   2.705   4.193  15.079 -0.1755 -0.2151 -0.7677
 2341DECAN   C723397   2.584   4.288  15.074  0.0845  0.2185  0.7349
 2341DECAN   C823398   2.448   4.219  15.051  0.2356  0.0891  0.2130
 2341DECAN   C923399   2.345   4.332  15.058  0.1161  0.0099 -0.2665
 2341DECAN  C1023400   2.209   4.281  15.109  0.2277 -0.2907 -0.2736
 2342DECAN   C123401   9.160  10.016   6.948  1.0865  0.4428  0.1481
 2342DECAN   C223402   9.255   9.896   6.964  0.0477 -0.3413  0.5202
 2342DECAN   C323403   9.263   9.812   6.835 -0.0041  0.3733  0.0465
 2342DECAN   C423404   9.374   9.707   6.849  0.2800  0.5377 -0.9252
 2342DECAN   C523405   9.399   9.610   6.732  0.2525  0.1815 -0.6381
 2342DECAN   C623406   9.531   9.530   6.731  0.1103 -0.0601 -0.2937
 2342DECAN   C723407   9.532   9.418   6.625 -0.3863 -0.3460 -0.0013
 2342DECAN   C823408   9.668   9.369   6.572 -0.3044 -0.2171  0.0881
 2342DECAN   C923409   9.769   9.485   6.559 -0.7341  0.1638  0.1144
 2342DECAN  C1023410   9.764   9.566   6.690 -0.5246  0.1191  0.1505
 2343DECAN   C123411  10.963  11.143   8.877  0.3865 -0.7533 -0.1331
 2343DECAN   C223412  10.865  11.083   8.980  0.4939 -0.2595  0.2578
 2343DECAN   C323413  10.912  11.136   9.117 -0.0480  0.1792  0.2791
 2343DECAN   C423414  10.849  11.096   9.251 -0.5344  0.1033  0.0291
 2343DECAN   C523415  10.902  11.181   9.368 -0.5611  0.5274 -0.2627
 2343DECAN   C623416  10.852  11.155   9.512  0.1319  0.5672 -0.0129
 2343DECAN   C723417  10.911  11.239   9.627  0.5817 -0.2963  0.3958
 2343DECAN   C823418  10.850  11.202   9.764 -0.4429  0.5825  0.1914
 2343DECAN   C923419  10.955   0.002   9.867  0.0909 -0.0991 -0.0544
 2343DECAN  C1023420  11.026  11.120   9.921  0.0073 -0.1168  0.0136
 2344DECAN   C123421   6.078  10.744  14.582  0.1100 -0.5546 -0.6011
 2344DECAN   C223422   6.159  10.833  14.486  0.0184  0.1828  0.0016
 2344DECAN   C323423   6.174  10.775  14.344 -0.4845 -0.3519  0.1604
 2344DECAN   C423424   6.275  10.846  14.251 -0.5561 -0.2566  0.1563
 2344DECAN   C523425   6.269  10.783  14.111 -0.1972  0.4195 -0.1668
 2344DECAN   C623426   6.378  10.832  14.014  0.3340 -0.1521  0.1368
 2344DECAN   C723427   6.339  10.805  13.868  0.5391 -0.1513  0.0815
 2344DECAN   C823428   6.446  10.828  13.760  0.3532  0.0121 -0.0695
 2344DECAN   C923429   6.401  10.794  13.617  0.4186 -0.1693 -0.0462
 2344DECAN  C1023430   6.359  10.646  13.622  0.7987 -0.2607  0.5059
 2345DECAN   C123431   9.419   3.650  15.012 -0.4134  0.4744 -0.2874
 2345DECAN   C223432   9.484   3.518  14.967 -0.1468  0.4800  0.0743
 2345DECAN   C323433   9.556   3.438  15.078  0.1423 -0.1587 -0.5650
 2345DECAN   C423434   9.603   3.295  15.045  0.2876 -0.2907  0.2036
 2345DECAN   C523435   9.704   3.300  14.929  0.1791 -0.1772  0.1140
 2345DECAN   C623436   9.790   3.173  14.916  0.4874 -0.0118  0.5190
 2345DECAN   C723437   9.916   3.199  14.832  0.3447  0.1537  0.3575
 2345DECAN   C823438  10.028   3.094  14.830  0.3059  0.1155  0.1615
 2345DECAN   C923439  10.150   3.127  14.741  0.2662  0.0659  0.0883
 2345DECAN  C1023440  10.252   3.012  14.728  0.1726 -0.0929  0.7100
 2346DECAN   C123441   8.173   5.115  13.858 -0.1382 -0.1839 -0.2695
 2346DECAN   C223442   8.268   5.136  13.739  0.2676  0.0457  0.0905
 2346DECAN   C323443   8.350   5.265  13.761  0.3510  0.0623 -0.3079
 2346DECAN   C423444   8.433   5.303  13.637  0.2641 -0.2880 -0.4745
 2346DECAN   C523445   8.518   5.430  13.654 -0.1148 -0.0962  0.0289
 2346DECAN   C623446   8.627   5.464  13.550  0.0888  0.0942  0.3020
 2346DECAN   C723447   8.697   5.601  13.551 -0.1755  0.2349  0.0935
 2346DECAN   C823448   8.762   5.635  13.416  0.0851  0.4920  0.2818
 2346DECAN   C923449   8.885   5.546  13.393 -0.1855 -0.0589  0.9338
 2346DECAN  C1023450   8.959   5.549  13.258 -0.7061 -0.1562  0.6442
 2347DECAN   C123451   7.676   9.098   4.717  0.4219  0.2253 -0.0372
 2347DECAN   C223452   7.523   9.106   4.708  0.3278 -0.7195  0.5958
 2347DECAN   C323453   7.439   9.140   4.832  0.4739  0.0995  0.4716
 2347DECAN   C423454   7.422   9.011   4.914  0.0630  0.1393  0.4520
 2347DECAN   C523455   7.351   9.026   5.050  0.1057 -0.1383  0.5057
 2347DECAN   C623456   7.370   8.903   5.141 -0.1357 -0.4659  0.1196
 2347DECAN   C723457   7.336   8.765   5.081 -0.0370 -0.4719  0.0784
 2347DECAN   C823458   7.460   8.727   4.998 -0.3076 -0.2429 -0.4368
 2347DECAN   C923459   7.438   8.597   4.919 -0.3874 -0.3602 -0.2208
 2347DECAN  C1023460   7.569   8.551   4.851 -0.2532 -0.4671  0.1080
 2348DECAN   C123461   2.942   3.548  14.881  0.6612  0.3552  0.3060
 2348DECAN   C223462   2.986   3.412  14.937 -0.1889  0.0339  0.2119
 2348DECAN   C323463   3.124   3.372  14.880 -0.0067  0.5038  0.3140
 2348DECAN   C423464   3.190   3.253  14.953 -0.6925 -0.1262 -0.0761
 2348DECAN   C523465   3.114   3.122  14.925 -0.2643 -0.5690  0.7847
 2348DECAN   C623466   2.961   3.134  14.943 -0.2684  0.1754  0.2812
 2348DECAN   C723467   2.898   3.035  14.843  0.5573  0.2801 -0.3522
 2348DECAN   C823468   2.875   2.905  14.923  0.7510  0.2992 -0.2634
 2348DECAN   C923469   3.002   2.828  14.962  0.1965 -0.4543  0.0776
 2348DECAN  C1023470   2.965   2.699  15.037  0.4303 -0.3744  0.3295
 2349DECAN   C123471   6.869   8.807   4.083 -0.5847  0.7105 -0.0111
 2349DECAN   C223472   6.962   8.929   4.098  0.3529  0.1000 -0.7347
 2349DECAN   C323473   6.930   9.063   4.030 -0.5557  0.3974  0.2513
 2349DECAN   C423474   7.010   9.191   4.061 -0.3701  0.3432  0.0063
 2349DECAN   C523475   6.940   9.322   4.017  0.0092  0.4899 -0.1603
 2349DECAN   C623476   7.005   9.459   4.045  0.0248  0.4734 -0.1095
 2349DECAN   C723477   6.940   9.591   4.000 -0.4878  0.0647 -0.5870
 2349DECAN   C823478   7.023   9.712   4.048 -0.7852  0.1903 -0.3908
 2349DECAN   C923479   7.031   9.724   4.202  1.1226 -0.6626 -0.3958
 2349DECAN  C1023480   7.102   9.842   4.271  0.3772 -0.2206 -0.3738
 2350DECAN   C123481   7.234   3.383  12.374  0.2149  0.2301  0.2414
 2350DECAN   C223482   7.149   3.266  12.425  0.2110  0.2653  0.3158
 2350DECAN   C323483   7.001   3.278  12.382  0.2455 -0.4007 -0.0025
 2350DECAN   C423484   6.896   3.345  12.471 -0.1774 -0.6034 -0.3459
 2350DECAN   C523485   6.755   3.312  12.417 -0.2992 -0.7380  0.0438
 2350DECAN   C623486   6.660   3.305  12.537  0.3192 -0.1021  0.5760
 2350DECAN   C723487   6.660   3.443  12.606 -0.2737  0.1495  0.0780
 2350DECAN   C823488   6.793   3.511  12.642 -0.1620 -0.2695  0.4661
 2350DECAN   C923489   6.763   3.657  12.681  0.1643 -0.1903  0.4291
 2350DECAN  C1023490   6.876   3.731  12.753  0.0291  0.3825  0.0615
 2351DECAN   C123491   8.513   3.277   3.740  0.2429  0.2035 -0.4357
 2351DECAN   C223492   8.390   3.205   3.798  0.3318  0.2910 -0.1364
 2351DECAN   C323493   8.260   3.287   3.793 -0.6256 -1.1854 -0.1154
 2351DECAN   C423494   8.154   3.248   3.897 -0.5859 -0.0091  0.3820
 2351DECAN   C523495   8.106   3.102   3.891 -0.0755 -0.1687  0.0855
 2351DECAN   C623496   7.998   3.064   3.995 -0.5409  0.6115 -0.1058
 2351DECAN   C723497   7.936   2.924   3.979  0.6117  0.0719  0.0069
 2351DECAN   C823498   8.034   2.811   4.014 -0.1716 -0.6860 -0.2147
 2351DECAN   C923499   8.161   2.811   3.927 -0.2479 -0.4959 -0.3253
 2351DECAN  C1023500   8.274   2.728   3.989  0.4040  0.4483 -0.2260
 2352DECAN   C123501   7.917   2.676  14.989 -0.4256  0.6027 -0.2875
 2352DECAN   C223502   7.945   2.811  15.057  0.0131  0.4509 -0.1653
 2352DECAN   C323503   7.826   2.905  15.028 -0.1948  0.1597 -0.2538
 2352DECAN   C423504   7.865   3.050  15.063  0.3834  0.2000 -1.0344
 2352DECAN   C523505   7.745   3.145  15.083  0.9709  0.5723  0.8672
 2352DECAN   C623506   7.789   3.290  15.108 -0.5544  1.2484 -0.2951
 2352DECAN   C723507   7.861   3.352  14.987  0.3245  0.0495 -0.4012
 2352DECAN   C823508   7.910   3.494  15.022 -0.2501  0.1247  0.0988
 2352DECAN   C923509   7.786   3.581  15.052 -0.1885  0.2078  0.1144
 2352DECAN  C1023510   7.666   3.524  15.130 -0.2068  0.2661  0.1291
 2353DECAN   C123511   6.502   1.254  10.932  0.0308 -0.2720  0.5861
 2353DECAN   C223512   6.450   1.383  10.999  0.3030  0.1387  0.0137
 2353DECAN   C323513   6.310   1.430  10.955  0.3172  0.2527  0.0896
 2353DECAN   C423514   6.252   1.555  11.024 -0.1327 -0.0363  0.2407
 2353DECAN   C523515   6.342   1.676  10.996  0.1933 -0.3091  0.1031
 2353DECAN   C623516   6.283   1.758  10.879  0.5422  0.2635  0.3211
 2353DECAN   C723517   6.158   1.831  10.930  0.0389 -0.1905 -0.2461
 2353DECAN   C823518   6.179   1.921  11.053  0.1167  0.2606 -0.5848
 2353DECAN   C923519   6.057   1.993  11.113  0.3608  0.1574  0.0465
 2353DECAN  C1023520   6.112   2.078  11.229  0.3652  0.2627 -0.0325
 2354DECAN   C123521   9.016   1.343  14.709  0.1187  0.3672 -0.4118
 2354DECAN   C223522   9.005   1.190  14.698  0.0656  0.3546 -0.1718
 2354DECAN   C323523   8.880   1.118  14.752  0.6636 -0.3322  0.3337
 2354DECAN   C423524   8.865   0.968  14.721  0.0400 -0.1700 -0.1639
 2354DECAN   C523525   8.733   0.908  14.773  0.0392 -0.3841 -0.4100
 2354DECAN   C623526   8.738   0.755  14.783  0.2971 -0.3432  0.1373
 2354DECAN   C723527   8.614   0.697  14.854 -0.2832  0.3562 -0.2939
 2354DECAN   C823528   8.615   0.544  14.865 -0.5241  0.3507 -0.3552
 2354DECAN   C923529   8.492   0.476  14.929 -0.4834  0.3625 -0.2646
 2354DECAN  C1023530   8.484   0.326  14.894 -0.0928  0.0605  0.9101
 2355DECAN   C123531   4.645   5.043  13.509 -0.5220  0.5988  0.7966
 2355DECAN   C223532   4.583   5.176  13.463 -0.7682  0.3123  0.2919
 2355DECAN   C323533   4.677   5.230  13.354 -0.4198 -0.3437  0.2638
 2355DECAN   C423534   4.646   5.374  13.309  0.6218 -0.0614  0.4350
 2355DECAN   C523535   4.736   5.423  13.195  0.2425  0.2924  0.2851
 2355DECAN   C623536   4.724   5.577  13.186 -0.0898  0.2762  0.4526
 2355DECAN   C723537   4.795   5.640  13.065 -0.4570 -0.8350 -0.3581
 2355DECAN   C823538   4.937   5.595  13.025 -0.2031 -0.0335 -0.3709
 2355DECAN   C923539   4.943   5.447  12.983 -0.2500  0.1521 -1.0466
 2355DECAN  C1023540   5.077   5.392  12.930  0.1731 -0.3966  0.5398
 2356DECAN   C123541   7.338   8.695  13.626  0.6929 -0.2161 -0.0233
 2356DECAN   C223542   7.340   8.777  13.756 -0.2934 -0.0071 -0.1304
 2356DECAN   C323543   7.436   8.728  13.866 -0.6153 -0.0118  0.1490
 2356DECAN   C423544   7.418   8.787  14.007 -0.7277 -0.4837  0.3364
 2356DECAN   C523545   7.519   8.748  14.117  0.1958  0.0544 -0.3012
 2356DECAN   C623546   7.480   8.807  14.253  0.5153 -0.5443  0.0511
 2356DECAN   C723547   7.565   8.757  14.371 -0.0122 -0.2542  0.5621
 2356DECAN   C823548   7.555   8.846  14.496 -0.2114  0.8503 -0.2311
 2356DECAN   C923549   7.633   8.802  14.621 -0.2916 -0.0991 -0.5063
 2356DECAN  C1023550   7.645   8.894  14.745 -0.9087 -0.1293 -0.4240
 2357DECAN   C123551   1.708   5.663  13.370 -0.4046  0.6990  0.0973
 2357DECAN   C223552   1.610   5.605  13.473  0.2279 -0.2331  0.1834
 2357DECAN   C323553   1.587   5.453  13.467 -0.2721 -0.1638  0.2906
 2357DECAN   C423554   1.477   5.402  13.563 -0.4045  0.2970  0.3830
 2357DECAN   C523555   1.525   5.432  13.706  0.1940  0.7043  0.1002
 2357DECAN   C623556   1.428   5.400  13.821 -0.1626 -0.4919 -0.5072
 2357DECAN   C723557   1.506   5.426  13.951 -0.3927 -0.7846 -0.3088
 2357DECAN   C823558   1.423   5.423  14.081  0.0113  0.0434 -0.0223
 2357DECAN   C923559   1.327   5.543  14.090 -0.4512 -0.2607 -0.8204
 2357DECAN  C1023560   1.385   5.680  14.051 -0.4435  0.0119  0.1320
 2358DECAN   C123561   6.277   3.286  11.241 -0.1542 -0.0494 -0.1811
 2358DECAN   C223562   6.324   3.432  11.225 -0.0233 -0.0686  0.0246
 2358DECAN   C323563   6.238   3.535  11.150  0.3629 -0.0543 -0.4011
 2358DECAN   C423564   6.207   3.477  11.011 -0.1410  0.3622 -0.4629
 2358DECAN   C523565   6.328   3.431  10.928  0.3273  0.6565  0.0549
 2358DECAN   C623566   6.296   3.364  10.793 -0.4304 -0.1598  0.6309
 2358DECAN   C723567   6.206   3.440  10.694  0.2853  0.0006  0.0947
 2358DECAN   C823568   6.164   3.355  10.573  0.2885  0.0173  0.0817
 2358DECAN   C923569   6.080   3.437  10.473  0.1720 -0.9529 -0.6364
 2358DECAN  C1023570   6.167   3.538  10.396  0.1372 -0.2582  0.2173
 2359DECAN   C123571   1.623   6.055   9.655 -0.0767  0.1832 -0.0268
 2359DECAN   C223572   1.544   6.080   9.785  0.0437  0.0444  0.0728
 2359DECAN   C323573   1.595   6.210   9.850  0.1063  0.1427 -0.1718
 2359DECAN   C423574   1.512   6.270   9.965  0.2993  0.5598 -0.2482
 2359DECAN   C523575   1.583   6.392  10.026  0.1655  0.4002  0.2342
 2359DECAN   C623576   1.484   6.468  10.116 -0.0781 -0.5702  0.7941
 2359DECAN   C723577   1.343   6.491  10.057  0.2805  0.6890  0.4008
 2359DECAN   C823578   1.262   6.606  10.117 -1.0147 -0.2387  0.4670
 2359DECAN   C923579   1.140   6.628  10.025 -0.4082 -0.8204 -0.4945
 2359DECAN  C1023580   1.183   6.644   9.878  0.2676  0.5773 -0.1586
 2360DECAN   C123581   8.762   8.746  10.753 -0.4654 -0.2980 -0.2274
 2360DECAN   C223582   8.666   8.666  10.663 -0.3683 -0.4621 -0.1848
 2360DECAN   C323583   8.616   8.545  10.745 -0.8265  0.2673  0.6352
 2360DECAN   C423584   8.514   8.453  10.675 -0.2415 -0.0162  0.1494
 2360DECAN   C523585   8.466   8.320  10.736  0.1210 -0.3226 -0.2243
 2360DECAN   C623586   8.568   8.209  10.704  0.7095  0.1613 -0.0654
 2360DECAN   C723587   8.510   8.081  10.768  0.2761  0.1299 -0.5093
 2360DECAN   C823588   8.488   8.102  10.919  0.1074 -0.3966 -0.4616
 2360DECAN   C923589   8.619   8.090  10.999 -0.4804 -0.8370  0.4440
 2360DECAN  C1023590   8.673   7.946  11.001  0.2024 -0.5966 -0.3905
 2361DECAN   C123591   5.592   8.114  11.699 -0.9548  0.1748 -0.1701
 2361DECAN   C223592   5.541   8.149  11.840 -0.8455 -0.8879  0.1379
 2361DECAN   C323593   5.557   8.045  11.953 -0.2060 -1.1940 -0.2340
 2361DECAN   C423594   5.563   8.105  12.094 -0.2824 -0.7870 -0.4037
 2361DECAN   C523595   5.618   8.012  12.205  0.0071 -0.1047  0.0349
 2361DECAN   C623596   5.649   8.098  12.329 -0.3505 -0.0401  0.0796
 2361DECAN   C723597   5.699   8.010  12.445  0.2902 -0.5014 -0.5408
 2361DECAN   C823598   5.594   7.910  12.494  0.1759  0.0332  0.3152
 2361DECAN   C923599   5.626   7.879  12.642 -0.1075  0.0995  0.3908
 2361DECAN  C1023600   5.571   7.747  12.698  0.3947 -0.3121 -0.0787
 2362DECAN   C123601   9.278   7.880  10.557  0.1604 -0.0453 -1.0385
 2362DECAN   C223602   9.426   7.851  10.524  0.5725 -0.0890  0.7484
 2362DECAN   C323603   9.495   7.732  10.592  0.4406 -0.2601  0.5837
 2362DECAN   C423604   9.645   7.756  10.616  0.4796  0.3804 -0.2741
 2362DECAN   C523605   9.724   7.659  10.706 -0.1377  0.3915  0.2892
 2362DECAN   C623606   9.747   7.521  10.642 -0.2478  0.4045  0.2212
 2362DECAN   C723607   9.869   7.436  10.681 -0.0787  0.4639 -0.1701
 2362DECAN   C823608   9.875   7.295  10.618 -0.3530  0.1810  0.4235
 2362DECAN   C923609   9.861   7.176  10.714  0.5043 -0.0953  0.2143
 2362DECAN  C1023610   9.864   7.037  10.647  0.3295  0.0346 -0.0622
 2363DECAN   C123611   6.296   0.127   5.851 -0.4806 -0.1070  0.1200
 2363DECAN   C223612   6.313   0.084   5.704 -0.4016  0.7305 -0.1198
 2363DECAN   C323613   6.431   0.156   5.634 -0.0982  0.2379 -0.1189
 2363DECAN   C423614   6.467   0.112   5.491  0.3398  0.5079 -0.0931
 2363DECAN   C523615   6.541  11.221   5.490 -0.3110  0.1350  0.6718
 2363DECAN   C623616   6.564  11.171   5.346  0.1415  0.4312  0.6416
 2363DECAN   C723617   6.613  11.025   5.340 -0.2121  0.3101  0.7074
 2363DECAN   C823618   6.530  10.921   5.417 -0.2218 -0.2424 -0.0433
 2363DECAN   C923619   6.563  10.774   5.385 -0.0339 -0.1505 -0.2728
 2363DECAN  C1023620   6.487  10.667   5.466  0.4911  0.0327  0.4746
 2364DECAN   C123621   6.488   2.301   5.553 -0.7602  0.2475 -0.5070
 2364DECAN   C223622   6.401   2.386   5.648 -0.1766 -0.1927  0.4382
 2364DECAN   C323623   6.324   2.290   5.740  0.0591 -0.2742  0.5528
 2364DECAN   C423624   6.200   2.222   5.678  0.2267  0.3849 -0.5491
 2364DECAN   C523625   6.235   2.102   5.588  0.2068 -0.1135  0.0935
 2364DECAN   C623626   6.107   2.033   5.540 -0.2491  0.7553  0.0391
 2364DECAN   C723627   6.119   1.897   5.469 -0.1018  0.6403  0.2817
 2364DECAN   C823628   6.056   1.884   5.329  0.1420 -0.0493  0.2300
 2364DECAN   C923629   6.096   1.761   5.246 -0.5157 -0.1513  0.0590
 2364DECAN  C1023630   5.995   1.741   5.132 -0.1152 -0.6095 -0.2208
 2365DECAN   C123631   9.236   3.043   8.889 -0.2268  0.2989 -0.7647
 2365DECAN   C223632   9.296   3.063   9.030 -0.5188 -0.4537 -0.5268
 2365DECAN   C323633   9.436   3.125   9.026 -0.8362  0.3604  0.6076
 2365DECAN   C423634   9.508   3.105   9.161 -0.2228 -0.2875  0.1904
 2365DECAN   C523635   9.419   3.140   9.282 -0.0684  0.2523  0.1517
 2365DECAN   C623636   9.475   3.112   9.423 -0.1343 -0.4498  0.0396
 2365DECAN   C723637   9.372   3.105   9.537  0.0369 -0.4252  0.1952
 2365DECAN   C823638   9.412   3.082   9.684  0.5227 -0.1324  0.1126
 2365DECAN   C923639   9.434   2.940   9.739 -0.1461 -0.2929 -0.0184
 2365DECAN  C1023640   9.473   2.936   9.888  0.1586 -0.3413 -0.0989
 2366DECAN   C123641   9.728   1.084   6.862  0.3595  0.1753  0.4444
 2366DECAN   C223642   9.749   1.063   6.711 -0.7584  0.0064  0.3035
 2366DECAN   C323643   9.655   1.131   6.610  0.2521  0.2612 -0.4866
 2366DECAN   C423644   9.507   1.090   6.615  0.3898 -0.2075 -0.2362
 2366DECAN   C523645   9.500   0.936   6.611  0.3142 -0.2214  0.3211
 2366DECAN   C623646   9.569   0.877   6.487  0.0880  0.2178 -0.0196
 2366DECAN   C723647   9.522   0.911   6.345 -0.4535 -0.2043  0.0531
 2366DECAN   C823648   9.596   0.862   6.219  0.0842 -0.0633  0.3137
 2366DECAN   C923649   9.538   0.938   6.098  0.2879 -0.7226 -0.2007
 2366DECAN  C1023650   9.397   0.910   6.044  0.2633  0.1073 -0.5852
 2367DECAN   C123651   3.470   2.801  15.008 -0.5110  0.1874 -0.4559
 2367DECAN   C223652   3.492   2.682  14.912 -0.0373 -0.2906  0.2269
 2367DECAN   C323653   3.376   2.582  14.920 -0.3545  0.0802  0.3111
 2367DECAN   C423654   3.375   2.480  14.804 -0.0798  0.2506  0.1590
 2367DECAN   C523655   3.252   2.388  14.821 -0.1296  0.2788 -0.0564
 2367DECAN   C623656   3.216   2.283  14.714  1.0212 -0.2828  0.0922
 2367DECAN   C723657   3.082   2.218  14.752  1.2159 -0.6290  0.1876
 2367DECAN   C823658   3.062   2.093  14.663 -0.0986 -0.5437  0.3431
 2367DECAN   C923659   2.999   2.130  14.528  0.0034 -0.1998  0.3899
 2367DECAN  C1023660   2.976   2.021  14.422 -0.0328  0.2175 -0.0350
 2368DECAN   C123661   7.264   8.760   4.513 -0.1111  0.2243 -0.3406
 2368DECAN   C223662   7.148   8.723   4.607  0.5108  0.5285  0.5576
 2368DECAN   C323663   7.056   8.842   4.640 -0.0140  0.2699  0.0488
 2368DECAN   C423664   6.981   8.887   4.513 -0.3803 -0.0255  0.1576
 2368DECAN   C523665   6.908   9.023   4.520 -0.1070  0.1741 -0.7093
 2368DECAN   C623666   6.779   9.032   4.604  0.2658 -0.2357 -0.0766
 2368DECAN   C723667   6.666   8.942   4.552 -0.1579  0.6267 -0.6866
 2368DECAN   C823668   6.550   8.919   4.651  0.2939  0.3980 -0.2023
 2368DECAN   C923669   6.441   8.817   4.611 -0.0741  0.4643  0.6208
 2368DECAN  C1023670   6.341   8.806   4.727 -0.2947  0.1329  0.4003
 2369DECAN   C123671   9.289   8.753   8.527  0.2264 -0.5373 -0.8282
 2369DECAN   C223672   9.363   8.757   8.663 -0.3751 -0.1390 -0.5072
 2369DECAN   C323673   9.474   8.863   8.670 -0.1924 -0.3793  0.3042
 2369DECAN   C423674   9.555   8.862   8.801 -0.2575  0.5867  0.3597
 2369DECAN   C523675   9.470   8.908   8.920 -0.4225 -0.2028  0.5571
 2369DECAN   C623676   9.544   8.901   9.055  0.2732  0.0799  0.1946
 2369DECAN   C723677   9.452   8.887   9.178  0.3646 -0.1416  0.2385
 2369DECAN   C823678   9.545   8.867   9.299  0.6805  0.4274  0.0922
 2369DECAN   C923679   9.444   8.843   9.412  0.3933 -0.2560 -0.3103
 2369DECAN  C1023680   9.517   8.802   9.541  0.3979  0.0414 -0.2210
 2370DECAN   C123681   5.123   4.112  11.943 -0.6602  0.1533 -0.9334
 2370DECAN   C223682   5.214   4.197  11.852 -0.1289  0.2195 -0.3476
 2370DECAN   C323683   5.295   4.110  11.754 -0.2291 -0.1015 -0.1472
 2370DECAN   C423684   5.413   4.035  11.818 -0.0091  0.3268 -0.0420
 2370DECAN   C523685   5.497   3.948  11.722 -0.2691  0.3446 -0.2885
 2370DECAN   C623686   5.434   3.810  11.696 -0.2276  0.2426  0.1441
 2370DECAN   C723687   5.533   3.706  11.641  0.0189  0.3278  0.4277
 2370DECAN   C823688   5.475   3.564  11.637 -0.2271  0.4281  0.3937
 2370DECAN   C923689   5.381   3.529  11.521 -0.2236  0.1690  0.4677
 2370DECAN  C1023690   5.233   3.568  11.540 -0.0665  0.8356  0.3396
 2371DECAN   C123691   3.143   4.597  13.055  1.1321 -0.2642 -0.5141
 2371DECAN   C223692   3.103   4.529  12.923  0.2387 -0.1975 -0.2889
 2371DECAN   C323693   2.969   4.454  12.926 -0.1050  0.3931 -0.7575
 2371DECAN   C423694   2.857   4.559  12.943 -0.0348  0.4491 -0.6362
 2371DECAN   C523695   2.717   4.513  12.898 -0.1904  0.5070 -0.2087
 2371DECAN   C623696   2.586   4.587  12.933 -0.4309 -0.1211  0.2464
 2371DECAN   C723697   2.476   4.581  12.826 -0.1193 -0.2547 -0.0672
 2371DECAN   C823698   2.351   4.650  12.883  0.1697 -0.0320  0.3030
 2371DECAN   C923699   2.312   4.588  13.018 -0.5982 -0.2722 -0.0167
 2371DECAN  C1023700   2.193   4.660  13.083 -0.0021  0.9087 -0.2021
 2372DECAN   C123701   9.575   7.939  13.429  0.5428  0.0880  0.5419
 2372DECAN   C223702   9.691   7.838  13.421  0.2714 -0.2000  0.2160
 2372DECAN   C323703   9.720   7.772  13.556 -0.5465 -0.5403  0.2340
 2372DECAN   C423704   9.814   7.650  13.556 -0.0041 -0.1237 -0.2044
 2372DECAN   C523705   9.838   7.583  13.692  0.2288  0.3132 -0.0275
 2372DECAN   C623706   9.945   7.473  13.703 -0.0687  0.0147 -0.0952
 2372DECAN   C723707   9.937   7.401  13.839  0.0335  0.0711 -0.0601
 2372DECAN   C823708  10.038   7.289  13.868 -0.2262 -0.0696  0.3002
 2372DECAN   C923709  10.027   7.240  14.014 -0.0621  0.5271  0.5174
 2372DECAN  C1023710   9.938   7.115  14.022  0.1779  0.3744  0.7950
 2373DECAN   C123711   6.887   8.050   9.096  0.2979 -0.5757  0.1879
 2373DECAN   C223712   6.911   8.129   8.967  0.2804 -0.4379  0.2691
 2373DECAN   C323713   6.935   8.280   8.988 -0.0957 -0.2589 -0.5122
 2373DECAN   C423714   6.962   8.359   8.859 -0.6424  0.3746 -0.2421
 2373DECAN   C523715   6.975   8.510   8.884  0.5376  0.3028 -0.3802
 2373DECAN   C623716   7.098   8.554   8.967  0.2799  0.0469  0.1470
 2373DECAN   C723717   7.105   8.502   9.111 -0.1881  0.1536  0.2102
 2373DECAN   C823718   6.998   8.551   9.211 -0.3006 -0.0599  0.1942
 2373DECAN   C923719   6.998   8.705   9.217 -0.1083 -0.0447 -0.1488
 2373DECAN  C1023720   6.890   8.762   9.312  0.0185 -0.5283  0.2941
 2374DECAN   C123721   6.963   4.600   4.481  0.3081  0.0269  0.0050
 2374DECAN   C223722   7.004   4.462   4.427 -0.1208 -0.0844 -0.0320
 2374DECAN   C323723   6.974   4.341   4.517 -0.3584 -0.2680 -0.3513
 2374DECAN   C423724   6.981   4.205   4.446 -0.4525 -0.1226 -0.6389
 2374DECAN   C523725   7.116   4.165   4.382  0.1817 -0.2088  0.7211
 2374DECAN   C623726   7.217   4.093   4.472  0.5328  0.2037  0.6603
 2374DECAN   C723727   7.347   4.034   4.414  0.1116  0.0268 -0.1058
 2374DECAN   C823728   7.450   3.987   4.518 -0.1214 -0.4140 -0.0715
 2374DECAN   C923729   7.590   3.952   4.465 -0.3762 -0.6127 -0.6222
 2374DECAN  C1023730   7.636   4.066   4.373 -0.2595 -0.0995  0.0687
 2375DECAN   C123731   7.169   3.160   8.158 -0.5652 -0.3000 -0.0537
 2375DECAN   C223732   7.116   3.304   8.161 -0.5452 -0.2808 -0.4912
 2375DECAN   C323733   7.004   3.337   8.262  0.1383  0.1941  0.1255
 2375DECAN   C423734   7.019   3.294   8.409  0.2297  0.5297  0.2159
 2375DECAN   C523735   7.014   3.142   8.432  0.8904  0.3628 -0.6951
 2375DECAN   C623736   7.052   3.102   8.576  0.4134  0.1020 -0.6380
 2375DECAN   C723737   7.031   2.958   8.626  0.3698  0.3961  0.2152
 2375DECAN   C823738   7.113   2.942   8.755  0.4378 -0.2707  0.0934
 2375DECAN   C923739   7.182   2.805   8.767  0.3059 -0.3468 -0.0128
 2375DECAN  C1023740   7.300   2.808   8.865 -0.0949  0.7634  0.4458
 2376DECAN   C123741  10.832   6.467  10.603  0.2467  0.4272  0.3887
 2376DECAN   C223742  10.886   6.339  10.537 -0.2347  0.1499  0.5271
 2376DECAN   C323743  10.784   6.228  10.504  0.5358 -0.3341 -0.2721
 2376DECAN   C423744  10.724   6.161  10.629 -0.0757  0.2406 -0.2482
 2376DECAN   C523745  10.633   6.244  10.721 -0.0331 -0.3600  0.3510
 2376DECAN   C623746  10.585   6.176  10.850  0.3052 -0.7698  0.2603
 2376DECAN   C723747  10.515   6.267  10.952  0.0262 -0.3798 -0.2747
 2376DECAN   C823748  10.450   6.186  11.065  0.1693 -0.4462 -0.2392
 2376DECAN   C923749  10.558   6.124  11.156  0.2883 -0.3709 -0.3293
 2376DECAN  C1023750  10.653   6.226  11.223 -0.7913 -0.0333  0.7203
 2377DECAN   C123751   2.845   7.317  10.589 -0.0670 -0.5971 -0.2351
 2377DECAN   C223752   2.783   7.272  10.456 -0.3059 -0.5001 -0.1566
 2377DECAN   C323753   2.854   7.355  10.347 -0.4750 -0.1529 -0.0039
 2377DECAN   C423754   2.797   7.364  10.204  0.2963 -0.4088 -0.3308
 2377DECAN   C523755   2.825   7.499  10.135 -0.1157 -0.0795  0.1386
 2377DECAN   C623756   2.797   7.509   9.983 -0.1228 -0.0826  0.1390
 2377DECAN   C723757   2.661   7.564   9.935 -0.1867 -0.4694 -0.1248
 2377DECAN   C823758   2.657   7.532   9.785 -0.4105 -0.4450 -0.1241
 2377DECAN   C923759   2.524   7.561   9.712 -0.1518 -0.0600 -0.4451
 2377DECAN  C1023760   2.501   7.471   9.588 -0.1817 -0.3747 -0.2116
 2378DECAN   C123761   6.471   0.029  14.331  0.7061  0.0423  0.1791
 2378DECAN   C223762   6.421   0.175  14.334  0.3215 -0.0876  0.2289
 2378DECAN   C323763   6.420   0.241  14.473 -0.4468 -0.1503  0.2570
 2378DECAN   C423764   6.412   0.394  14.455 -0.1295 -0.1314  0.2617
 2378DECAN   C523765   6.427   0.461  14.592 -0.6117  0.6360 -0.0552
 2378DECAN   C623766   6.328   0.426  14.705 -0.2587 -0.3010 -0.0273
 2378DECAN   C723767   6.350   0.472  14.851  0.2841 -0.0214 -0.1958
 2378DECAN   C823768   6.234   0.447  14.949  0.2348  0.1096 -0.2197
 2378DECAN   C923769   6.112   0.538  14.927  0.4166  0.4850  0.3159
 2378DECAN  C1023770   5.985   0.504  15.008  0.1879 -0.0372 -0.2491
 2379DECAN   C123771   3.588   5.087   6.241 -0.0247  0.1646  0.4543
 2379DECAN   C223772   3.671   5.161   6.134 -0.6060 -0.3232 -0.3475
 2379DECAN   C323773   3.612   5.137   5.994  0.2275 -0.1629 -0.7349
 2379DECAN   C423774   3.462   5.170   5.987  0.2267  0.1055  0.3702
 2379DECAN   C523775   3.391   5.155   5.852  0.2624 -0.4276  0.4099
 2379DECAN   C623776   3.239   5.133   5.861  0.2257 -0.2490  0.2378
 2379DECAN   C723777   3.161   5.247   5.928  0.4347 -0.1093  0.2456
 2379DECAN   C823778   3.014   5.218   5.964  0.4405 -0.4508 -0.0029
 2379DECAN   C923779   2.940   5.330   6.039  0.1065 -0.4112 -0.3889
 2379DECAN  C1023780   2.794   5.299   6.075  0.1341 -0.3014 -0.1793
 2380DECAN   C123781  10.549   6.316   5.706 -0.3733  0.3498  0.1929
 2380DECAN   C223782  10.418   6.274   5.635 -0.1776  0.1394 -0.0465
 2380DECAN   C323783  10.382   6.365   5.516 -0.0288  0.2698  0.0074
 2380DECAN   C423784  10.256   6.333   5.432  0.1381 -0.1731 -0.0780
 2380DECAN   C523785  10.239   6.430   5.315 -0.2835  0.0339  0.1529
 2380DECAN   C623786  10.117   6.396   5.227  0.4054  0.0261 -0.8244
 2380DECAN   C723787  10.099   6.474   5.096  0.2713  0.7500 -0.3842
 2380DECAN   C823788   9.964   6.450   5.025 -0.3015  0.7088  0.7122
 2380DECAN   C923789   9.965   6.536   4.897  0.0850 -0.3643 -0.0151
 2380DECAN  C1023790   9.831   6.538   4.823  0.1660 -0.1037 -0.1552
 2381DECAN   C123791  10.079   5.731  10.775 -0.6829  0.1720  0.0175
 2381DECAN   C223792  10.134   5.786  10.642 -0.2237  0.5637  0.3701
 2381DECAN   C323793  10.193   5.928  10.654  0.4210  0.2824  0.6315
 2381DECAN   C423794  10.224   5.994  10.518  0.0474 -0.4047  0.2038
 2381DECAN   C523795  10.339   6.098  10.523  0.0306 -0.3848  0.1639
 2381DECAN   C623796  10.348   6.180  10.393  0.4806 -0.5325  0.1022
 2381DECAN   C723797  10.431   6.306  10.421  0.0619 -0.1512 -0.3523
 2381DECAN   C823798  10.406   6.418  10.318 -0.6150  0.2261  0.2166
 2381DECAN   C923799  10.465   6.556  10.354  0.1910  0.0027 -0.2252
 2381DECAN  C1023800  10.409   6.657  10.252  0.0255  0.4561  0.3143
 2382DECAN   C123801   6.893   2.510   6.669  0.1700 -0.1075  0.0823
 2382DECAN   C223802   6.837   2.574   6.798  0.4032  0.4784 -0.1066
 2382DECAN   C323803   6.704   2.526   6.859  0.4378  0.3533 -0.1293
 2382DECAN   C423804   6.665   2.574   7.000 -0.0875 -0.1845 -0.0863
 2382DECAN   C523805   6.629   2.723   7.009  0.0854 -0.1192 -0.4228
 2382DECAN   C623806   6.493   2.740   6.938 -0.4034 -0.4274  0.4148
 2382DECAN   C723807   6.457   2.889   6.951 -0.1339 -0.3618  0.4185
 2382DECAN   C823808   6.313   2.912   6.904 -0.0900  0.1182  0.5115
 2382DECAN   C923809   6.207   2.830   6.980 -0.2525 -0.4371 -0.3053
 2382DECAN  C1023810   6.078   2.806   6.898 -0.4633  0.3882 -0.2227
 2383DECAN   C123811   1.572   3.162  12.978 -0.7176  0.4468 -0.0648
 2383DECAN   C223812   1.575   3.112  12.833 -0.4505  0.2829 -0.0039
 2383DECAN   C323813   1.504   2.977  12.817  0.3253 -0.1031 -0.2450
 2383DECAN   C423814   1.547   2.882  12.930 -0.2664  0.0197  0.0872
 2383DECAN   C523815   1.481   2.744  12.920 -0.0560 -0.0793  0.0666
 2383DECAN   C623816   1.574   2.636  12.979  0.0801  0.1798  0.3280
 2383DECAN   C723817   1.531   2.492  12.943 -0.2949  0.2303  0.5642
 2383DECAN   C823818   1.611   2.384  13.020 -0.2654  0.1598  0.4339
 2383DECAN   C923819   1.757   2.367  12.977 -0.3831 -0.3568  0.2340
 2383DECAN  C1023820   1.782   2.289  12.847  0.2857 -0.2803  0.3115
 2384DECAN   C123821   5.396  11.057  13.354  0.2219  0.1252  0.3548
 2384DECAN   C223822   5.514  10.968  13.397 -0.1544 -0.6691 -0.2180
 2384DECAN   C323823   5.517  10.819  13.360  0.4144 -0.6752 -0.1479
 2384DECAN   C423824   5.405  10.749  13.438 -0.0411 -0.0420 -0.2267
 2384DECAN   C523825   5.408  10.595  13.432 -0.7566 -0.0965  0.5526
 2384DECAN   C623826   5.292  10.516  13.493 -0.6735 -0.4078  0.3112
 2384DECAN   C723827   5.289  10.509  13.647 -0.5664  0.1663  0.3400
 2384DECAN   C823828   5.202  10.392  13.697  0.0687 -0.3234  0.3148
 2384DECAN   C923829   5.220  10.260  13.620  0.1512 -0.1348  0.0084
 2384DECAN  C1023830   5.363  10.204  13.632  0.2850  0.2877  0.4375
 2385DECAN   C123831   4.670   9.791   7.389 -1.0202 -0.4440  0.2824
 2385DECAN   C223832   4.704   9.719   7.257  0.3321 -0.4797  0.6406
 2385DECAN   C323833   4.750   9.574   7.283  0.0032 -0.5835  0.6480
 2385DECAN   C423834   4.807   9.525   7.148  0.1137  0.6812  0.2177
 2385DECAN   C523835   4.702   9.556   7.040 -0.1711 -0.0954  0.2652
 2385DECAN   C623836   4.672   9.453   6.929  0.2381  0.0196  0.0459
 2385DECAN   C723837   4.558   9.505   6.840  0.0652  0.1415  0.3363
 2385DECAN   C823838   4.427   9.531   6.917 -0.1015 -0.3378  0.2228
 2385DECAN   C923839   4.446   9.606   7.051 -0.0909 -0.5569  0.3434
 2385DECAN  C1023840   4.318   9.623   7.133 -0.0686 -0.1672  0.2975
 2386DECAN   C123841   3.219  10.048  11.104  0.3892 -0.1626 -0.1271
 2386DECAN   C223842   3.199  10.193  11.056 -0.3438 -0.1838  0.0992
 2386DECAN   C323843   3.083  10.264  11.129  0.2530  0.0784  0.8096
 2386DECAN   C423844   3.053  10.403  11.070 -0.5918 -0.7217 -0.6970
 2386DECAN   C523845   2.920  10.458  11.124  0.0627 -0.0170  0.2313
 2386DECAN   C623846   2.885  10.598  11.070  0.0019 -0.1546 -0.0923
 2386DECAN   C723847   2.859  10.605  10.918 -0.0070  0.1547 -0.0768
 2386DECAN   C823848   2.850  10.743  10.851  0.2420  0.3491  0.2847
 2386DECAN   C923849   2.709  10.798  10.880 -0.3101 -0.5109 -0.6609
 2386DECAN  C1023850   2.593  10.700  10.859 -0.5120 -0.3301 -0.4057
 2387DECAN   C123851   8.594   1.694  11.826  0.2986  0.6185 -0.0066
 2387DECAN   C223852   8.494   1.780  11.746 -0.5027  0.1667  0.5028
 2387DECAN   C323853   8.444   1.707  11.621  1.0584 -0.1028  0.0164
 2387DECAN   C423854   8.345   1.804  11.553  0.3049 -0.5904  0.4012
 2387DECAN   C523855   8.236   1.858  11.648  0.3383  0.1129  0.0460
 2387DECAN   C623856   8.129   1.940  11.573 -0.0875 -0.2952  0.2033
 2387DECAN   C723857   8.177   2.057  11.485 -0.2520 -0.6918 -0.4174
 2387DECAN   C823858   8.067   2.145  11.423  0.2744  0.3264  0.0862
 2387DECAN   C923859   8.122   2.281  11.375  0.3231  0.2836  0.0198
 2387DECAN  C1023860   8.010   2.387  11.371  0.2696  0.2524  0.5910
 2388DECAN   C123861   9.804   3.942   4.847  0.1902  0.2240  0.6892
 2388DECAN   C223862   9.882   3.821   4.902 -0.4301 -0.4740  0.0456
 2388DECAN   C323863   9.861   3.805   5.053 -0.5531  0.0010  0.0776
 2388DECAN   C423864   9.910   3.915   5.150 -0.0539 -0.1392 -0.0151
 2388DECAN   C523865   9.908   3.880   5.300 -0.5996 -0.1871 -0.0310
 2388DECAN   C623866   9.829   3.976   5.391  0.4260  0.3542  0.2976
 2388DECAN   C723867   9.861   3.954   5.540  0.5968  0.1481  0.2313
 2388DECAN   C823868   9.801   4.062   5.632  0.2286  0.2283 -0.1035
 2388DECAN   C923869   9.841   4.044   5.779  0.5141  0.0992 -0.1978
 2388DECAN  C1023870   9.814   4.168   5.867  0.0566 -0.0728 -0.0974
 2389DECAN   C123871   6.196   5.768  12.575 -0.3449 -0.3063  0.1100
 2389DECAN   C223872   6.321   5.679  12.586  0.2882  0.4747 -0.6221
 2389DECAN   C323873   6.369   5.605  12.459  0.1900 -0.2311 -0.2531
 2389DECAN   C423874   6.469   5.489  12.472 -0.2903 -0.5804  0.3841
 2389DECAN   C523875   6.616   5.532  12.488 -0.3023 -0.3327 -0.1665
 2389DECAN   C623876   6.692   5.413  12.549 -0.0038 -0.1407 -0.1597
 2389DECAN   C723877   6.715   5.276  12.481 -0.1027 -0.2354 -0.0030
 2389DECAN   C823878   6.796   5.191  12.580  0.1715  0.5942  0.4937
 2389DECAN   C923879   6.733   5.194  12.721 -0.0784  0.1877  0.3905
 2389DECAN  C1023880   6.799   5.093  12.816  0.4066  0.2092  0.0794
 2390DECAN   C123881   0.920   4.567  10.971  0.5052  0.4467 -0.6240
 2390DECAN   C223882   1.001   4.611  10.847  0.6546  0.9352 -0.3574
 2390DECAN   C323883   1.009   4.501  10.739  0.0426  0.8105 -0.2831
 2390DECAN   C423884   1.090   4.560  10.622 -0.1367  0.3718 -0.6297
 2390DECAN   C523885   1.028   4.688  10.563 -0.5102  0.0604 -0.9170
 2390DECAN   C623886   1.104   4.759  10.450  0.4102 -0.2039 -0.4735
 2390DECAN   C723887   1.018   4.874  10.394  0.4237  0.0098 -0.0544
 2390DECAN   C823888   1.090   4.948  10.281  0.6961 -0.2142 -0.0302
 2390DECAN   C923889   1.205   5.039  10.329  0.1527  0.4189  0.0900
 2390DECAN  C1023890   1.294   5.085  10.212 -0.0592 -0.6112 -0.4890
 2391DECAN   C123891  10.600   4.122   7.868  0.1694 -0.5472  0.2885
 2391DECAN   C223892  10.502   4.201   7.780 -0.0913 -0.4019  0.7059
 2391DECAN   C323893  10.450   4.339   7.827 -0.4535 -0.2863 -0.0110
 2391DECAN   C423894  10.312   4.315   7.891 -0.1546 -0.6252  0.5162
 2391DECAN   C523895  10.224   4.441   7.894  0.3349 -0.2849  0.8075
 2391DECAN   C623896  10.076   4.412   7.928 -0.1001  0.4115 -0.4318
 2391DECAN   C723897   9.998   4.545   7.940 -0.8024 -0.0848  0.6439
 2391DECAN   C823898   9.851   4.534   7.985 -0.9842  0.1000  0.0928
 2391DECAN   C923899   9.754   4.513   7.868  0.0066  0.3460 -0.7903
 2391DECAN  C1023900   9.769   4.630   7.769 -0.1973  0.6327 -0.4821
 2392DECAN   C123901   7.021   6.731   9.328 -0.0899  0.2048 -0.4054
 2392DECAN   C223902   7.059   6.841   9.227  0.4442  0.5163  0.1287
 2392DECAN   C323903   7.209   6.839   9.194  0.4069  0.4211 -0.0366
 2392DECAN   C423904   7.248   6.922   9.071  0.2132  0.2239 -0.2318
 2392DECAN   C523905   7.209   6.854   8.938  0.3010  0.0949 -0.1912
 2392DECAN   C623906   7.242   6.949   8.822  0.4049  0.2055 -0.0732
 2392DECAN   C723907   7.386   7.001   8.818  0.5890 -0.3153 -0.2968
 2392DECAN   C823908   7.374   7.117   8.718 -0.5501 -0.0220  0.1734
 2392DECAN   C923909   7.508   7.188   8.693 -0.6196 -0.0316 -0.2417
 2392DECAN  C1023910   7.497   7.288   8.577  0.0584  0.1085 -0.1928
 2393DECAN   C123911   8.850   5.152   3.928 -0.4955  0.3318 -0.0668
 2393DECAN   C223912   8.720   5.092   3.872 -0.2900  0.3719 -0.5932
 2393DECAN   C323913   8.602   5.113   3.969 -0.3453 -0.1246 -0.5543
 2393DECAN   C423914   8.568   5.261   3.996 -0.2364 -0.1363 -0.3527
 2393DECAN   C523915   8.442   5.296   4.077 -0.1517 -0.0665 -0.2533
 2393DECAN   C623916   8.372   5.433   4.067 -0.2970 -0.1073  0.1620
 2393DECAN   C723917   8.239   5.436   4.144 -0.2096  0.0326  0.3095
 2393DECAN   C823918   8.139   5.545   4.099  0.3948  0.4968  0.0709
 2393DECAN   C923919   8.035   5.568   4.210  0.1966  0.7030 -0.1579
 2393DECAN  C1023920   7.926   5.672   4.177 -0.2783  0.3761  0.3654
 2394DECAN   C123921   3.598   4.995   8.389  0.2441  0.0738 -0.3922
 2394DECAN   C223922   3.500   4.951   8.500  0.3186 -0.0557 -0.3781
 2394DECAN   C323923   3.568   4.846   8.590 -0.3420  0.1929  0.4222
 2394DECAN   C423924   3.686   4.880   8.682  0.2970 -0.4274 -0.1545
 2394DECAN   C523925   3.647   4.971   8.800  0.0201 -0.6720 -0.0541
 2394DECAN   C623926   3.775   5.023   8.868 -0.3420  0.3137 -0.1021
 2394DECAN   C723927   3.745   5.097   9.000  0.1260 -0.3345  0.3734
 2394DECAN   C823928   3.871   5.120   9.085  0.3800 -0.1132 -0.0555
 2394DECAN   C923929   3.848   5.113   9.237  0.1558 -0.4742 -0.1048
 2394DECAN  C1023930   3.974   5.137   9.323  0.1027 -0.3871 -0.0521
 2395DECAN   C123931   4.784   1.134  10.346 -0.4142 -0.3874 -0.6009
 2395DECAN   C223932   4.770   1.244  10.238 -0.3820 -0.2572 -0.4732
 2395DECAN   C323933   4.866   1.232  10.118 -0.2626 -0.4606 -0.3592
 2395DECAN   C423934   4.862   1.344  10.012 -0.0324 -0.1800 -0.0733
 2395DECAN   C523935   4.998   1.354   9.940 -0.1546 -0.1802 -0.3027
 2395DECAN   C623936   4.999   1.469   9.837 -0.0387  0.0336 -0.0653
 2395DECAN   C723937   4.889   1.450   9.731  0.1077 -0.1824 -0.1808
 2395DECAN   C823938   4.843   1.587   9.676  0.3486  0.1235  0.3645
 2395DECAN   C923939   4.700   1.581   9.618  0.4863  0.3443 -0.0022
 2395DECAN  C1023940   4.585   1.605   9.717 -0.2091  0.0517 -0.7277
 2396DECAN   C123941   2.071   5.586  13.504 -0.4375  0.5723 -0.2184
 2396DECAN   C223942   2.026   5.445  13.462  0.4787 -0.0063  0.6736
 2396DECAN   C323943   2.121   5.381  13.359  0.0702  0.2995  0.0970
 2396DECAN   C423944   2.262   5.348  13.412  0.1548 -0.0039 -0.3132
 2396DECAN   C523945   2.351   5.273  13.311  0.1404  0.2184 -0.4922
 2396DECAN   C623946   2.469   5.191  13.367 -0.1937 -0.0721 -0.2094
 2396DECAN   C723947   2.491   5.053  13.300  0.1410 -0.1710  0.1018
 2396DECAN   C823948   2.579   5.048  13.174 -0.0899 -0.0583 -0.0652
 2396DECAN   C923949   2.593   4.911  13.105  0.2120 -0.1243  0.1283
 2396DECAN  C1023950   2.699   4.919  12.993  0.1040  0.7255  0.0809
 2397DECAN   C123951  10.794   3.338   9.058  0.1611  0.1217 -0.1738
 2397DECAN   C223952  10.641   3.326   9.066  0.1334  0.4559 -0.1837
 2397DECAN   C323953  10.568   3.423   8.972 -0.3060  0.1307 -0.1795
 2397DECAN   C423954  10.566   3.373   8.827 -0.2567  0.4599 -0.2954
 2397DECAN   C523955  10.518   3.474   8.721  0.0326  0.3566 -0.5251
 2397DECAN   C623956  10.555   3.617   8.765 -0.3392  0.1084  0.6112
 2397DECAN   C723957  10.526   3.715   8.650 -0.6105  0.2487  0.7982
 2397DECAN   C823958  10.568   3.861   8.674  0.3325  0.1437 -0.1243
 2397DECAN   C923959  10.523   3.946   8.554  0.5239  0.2934 -0.0885
 2397DECAN  C1023960  10.585   3.889   8.424  0.4304 -0.3350  0.1407
 2398DECAN   C123961   4.276   9.956   8.943 -0.1246  0.0451  0.0912
 2398DECAN   C223962   4.149   9.872   8.958 -0.3630  0.4504  0.3605
 2398DECAN   C323963   4.162   9.733   9.024  0.1488  0.5686  0.5133
 2398DECAN   C423964   4.014   9.696   9.048  0.1909  0.1911  0.1865
 2398DECAN   C523965   3.958   9.620   8.926 -0.1629  0.1335  0.3841
 2398DECAN   C623966   3.817   9.563   8.950  0.1478 -0.7836  0.0755
 2398DECAN   C723967   3.760   9.493   8.826  0.1870 -0.0468 -0.3620
 2398DECAN   C823968   3.615   9.451   8.856  0.2765 -0.0074  0.1359
 2398DECAN   C923969   3.521   9.573   8.858  0.0898 -0.1611  0.6725
 2398DECAN  C1023970   3.559   9.694   8.946  0.2637  0.1643  0.1531
 2399DECAN   C123971  10.973   2.317  10.326  0.1217  0.6024  0.0338
 2399DECAN   C223972  10.904   2.454  10.313 -0.3445  0.4154  0.5556
 2399DECAN   C323973  10.842   2.484  10.176 -0.1242 -0.3457  0.2826
 2399DECAN   C423974  10.788   2.626  10.149 -0.0889 -0.3709  0.0774
 2399DECAN   C523975  10.693   2.630  10.028  0.0292 -0.5781 -0.0239
 2399DECAN   C623976  10.758   2.570   9.902 -0.0010 -0.8498  0.0879
 2399DECAN   C723977  10.657   2.542   9.790  0.2054  0.0635 -0.3419
 2399DECAN   C823978  10.555   2.444   9.851  0.3361  0.3026  0.2583
 2399DECAN   C923979  10.469   2.384   9.738  0.8443  0.1789 -0.0623
 2399DECAN  C1023980  10.372   2.493   9.691 -0.0983 -0.5642  0.1430
 2400DECAN   C123981   5.225   0.883  11.502 -0.1111 -0.8224  0.0961
 2400DECAN   C223982   5.286   0.928  11.636 -0.1752  0.4362 -0.2879
 2400DECAN   C323983   5.196   0.968  11.755  0.4483 -0.5226  0.5146
 2400DECAN   C423984   5.269   1.031  11.876  0.1772 -0.3843  0.6058
 2400DECAN   C523985   5.379   1.121  11.818 -0.8558  0.5367  0.0258
 2400DECAN   C623986   5.479   1.180  11.919 -0.0047 -0.0509 -0.4649
 2400DECAN   C723987   5.581   1.283  11.868  0.6245 -0.0315  0.7849
 2400DECAN   C823988   5.698   1.220  11.790 -0.1393 -0.2911 -0.1642
 2400DECAN   C923989   5.808   1.327  11.770 -0.0792 -0.2366  0.4586
 2400DECAN  C1023990   5.874   1.382  11.898  0.2515 -0.0076  0.1899
 2401DECAN   C123991   4.669   6.727   7.653 -0.1273  0.3440 -0.1051
 2401DECAN   C223992   4.552   6.639   7.698  0.2300 -0.0531  0.0525
 2401DECAN   C323993   4.447   6.619   7.587  0.2511 -0.1457  0.0489
 2401DECAN   C423994   4.380   6.749   7.538  0.0477 -0.0962  0.4588
 2401DECAN   C523995   4.490   6.834   7.473 -0.0957 -0.2783 -0.0210
 2401DECAN   C623996   4.434   6.973   7.438 -0.3583 -0.3648  0.0555
 2401DECAN   C723997   4.429   7.060   7.565  0.9680 -0.2388  0.0348
 2401DECAN   C823998   4.443   7.210   7.533  0.3509 -0.0953  0.3958
 2401DECAN   C923999   4.394   7.319   7.629  0.3209  0.0054  0.2668
 2401DECAN  C1024000   4.462   7.456   7.606 -0.4097  0.4257  0.5529
 2402DECAN   C124001   7.589   6.123   4.700 -0.1486  0.1835  0.9044
 2402DECAN   C224002   7.512   6.242   4.761 -0.3177  0.4885  0.1041
 2402DECAN   C324003   7.474   6.339   4.647 -0.0713  0.3238 -0.1170
 2402DECAN   C424004   7.377   6.274   4.546 -0.1311 -0.2740  0.3196
 2402DECAN   C524005   7.243   6.235   4.611 -0.3034  0.0388  0.1513
 2402DECAN   C624006   7.155   6.146   4.521  0.0497 -0.2632  0.1055
 2402DECAN   C724007   7.005   6.174   4.541 -0.0535 -0.6845 -0.0659
 2402DECAN   C824008   6.926   6.087   4.441  0.3050 -1.0778 -0.0115
 2402DECAN   C924009   6.776   6.121   4.454  0.4700 -0.4948  0.4313
 2402DECAN  C1024010   6.711   6.046   4.336  0.2824 -0.4884  0.5312
 2403DECAN   C124011   5.883  10.274   8.461  0.1610 -0.3535  0.2837
 2403DECAN   C224012   5.862  10.422   8.424 -0.2176 -0.3318  0.5756
 2403DECAN   C324013   5.955  10.524   8.492  0.1389 -0.3955  0.1869
 2403DECAN   C424014   5.926  10.541   8.642  0.3390 -0.4187  0.2290
 2403DECAN   C524015   6.007  10.657   8.703  0.0881 -0.1775  0.1069
 2403DECAN   C624016   5.999  10.670   8.856 -0.5216 -0.0664  0.0671
 2403DECAN   C724017   6.046  10.808   8.905  0.3441 -0.2315 -0.2780
 2403DECAN   C824018   6.198  10.817   8.888  0.3613 -0.5008 -0.2609
 2403DECAN   C924019   6.248  10.960   8.916 -0.3464 -0.2487 -0.2800
 2403DECAN  C1024020   6.202  11.073   8.822  0.0255  0.2639  0.1506
 2404DECAN   C124021   1.306   3.376  11.963 -0.2550  0.2534  0.2997
 2404DECAN   C224022   1.456   3.368  11.926 -0.2582  0.7448  0.1765
 2404DECAN   C324023   1.481   3.273  11.807  0.2214 -0.1855  1.0096
 2404DECAN   C424024   1.619   3.305  11.747 -0.3635 -0.0407 -0.3011
 2404DECAN   C524025   1.652   3.438  11.677  0.1983 -0.1304 -0.2155
 2404DECAN   C624026   1.794   3.441  11.619  0.2454  0.2415 -0.0840
 2404DECAN   C724027   1.877   3.565  11.657  0.2965  0.2034 -0.0694
 2404DECAN   C824028   2.029   3.567  11.630  0.2767  0.2933 -0.1761
 2404DECAN   C924029   2.111   3.665  11.715  0.5002 -0.4906  0.5202
 2404DECAN  C1024030   2.109   3.649  11.868  0.4142  0.4779  0.6233
 2405DECAN   C124031   4.176   8.357  10.883 -0.1020  0.4651 -0.5783
 2405DECAN   C224032   4.210   8.457  10.996 -0.3410  0.2266 -0.2927
 2405DECAN   C324033   4.363   8.458  11.015 -0.3973  0.4801  0.1475
 2405DECAN   C424034   4.428   8.340  11.088 -0.7506 -0.0131 -0.3242
 2405DECAN   C524035   4.380   8.303  11.230 -0.5251 -0.0406 -0.2568
 2405DECAN   C624036   4.457   8.197  11.312  0.1511  0.2293 -0.5309
 2405DECAN   C724037   4.586   8.243  11.382  0.1805 -0.0435 -0.4054
 2405DECAN   C824038   4.576   8.355  11.488 -0.6113 -0.3203 -0.1782
 2405DECAN   C924039   4.445   8.371  11.566 -0.2590 -0.0374  0.3630
 2405DECAN  C1024040   4.440   8.496  11.656  0.8373  0.8079 -0.7220
 2406DECAN   C124041   1.165   7.789  11.761  0.1326 -0.1084 -0.5316
 2406DECAN   C224042   1.240   7.912  11.706  0.3112 -0.0898 -0.2503
 2406DECAN   C324043   1.390   7.879  11.708  0.3518  0.1098 -0.0391
 2406DECAN   C424044   1.426   7.806  11.577 -0.0045 -0.0997 -0.0212
 2406DECAN   C524045   1.460   7.909  11.468 -0.0180  0.1365  0.1949
 2406DECAN   C624046   1.549   8.027  11.512  0.1952  0.0918 -0.1167
 2406DECAN   C724047   1.671   7.998  11.601  0.2371  0.0675 -0.1806
 2406DECAN   C824048   1.729   8.132  11.651  0.1519 -0.1879  0.6176
 2406DECAN   C924049   1.640   8.219  11.743 -0.4660 -0.0187 -0.1324
 2406DECAN  C1024050   1.719   8.332  11.811  0.0070 -0.2467 -0.2985
 2407DECAN   C124051   3.119   8.761  14.173  0.0123 -0.0279 -0.4076
 2407DECAN   C224052   3.032   8.634  14.169 -0.0284  0.0015 -0.4341
 2407DECAN   C324053   2.992   8.576  14.306 -0.4446 -0.0743 -0.5858
 2407DECAN   C424054   2.930   8.435  14.298 -0.1175 -0.2729  0.2780
 2407DECAN   C524055   2.901   8.364  14.432  0.3720 -0.3025  0.3698
 2407DECAN   C624056   2.798   8.433  14.523  0.0813 -0.1927 -0.0393
 2407DECAN   C724057   2.646   8.418  14.500  0.0380 -0.9780  0.6877
 2407DECAN   C824058   2.543   8.455  14.608 -0.2495 -0.0273  0.0952
 2407DECAN   C924059   2.399   8.428  14.561 -0.1415 -0.2958 -0.0818
 2407DECAN  C1024060   2.288   8.489  14.648  0.1323 -0.2260  0.2167
 2408DECAN   C124061   1.830   8.677   5.550  0.5465 -0.4125  0.4330
 2408DECAN   C224062   1.817   8.524   5.550 -0.2185 -0.3463  0.9903
 2408DECAN   C324063   1.943   8.442   5.581 -0.4829 -0.9795  0.4154
 2408DECAN   C424064   2.014   8.484   5.711  0.1381 -0.1129 -0.1875
 2408DECAN   C524065   1.918   8.481   5.832  0.2700 -0.4835 -0.0905
 2408DECAN   C624066   1.973   8.475   5.976  0.1966 -0.0881 -0.0446
 2408DECAN   C724067   1.872   8.492   6.091  0.4530 -0.0071  0.1686
 2408DECAN   C824068   1.760   8.386   6.088  0.5301 -0.0835  0.0191
 2408DECAN   C924069   1.690   8.353   6.221 -0.1007 -0.0060 -0.2920
 2408DECAN  C1024070   1.603   8.231   6.184  0.1823 -0.0176 -0.9210
 2409DECAN   C124071   2.696   0.385   4.232  0.2098 -0.6742 -0.7633
 2409DECAN   C224072   2.663   0.493   4.127  0.2623 -0.3040 -0.4025
 2409DECAN   C324073   2.735   0.623   4.165 -0.1125 -0.2703  0.2253
 2409DECAN   C424074   2.882   0.626   4.116 -0.3022 -0.1008 -0.3416
 2409DECAN   C524075   2.973   0.744   4.154 -0.2517 -0.0594 -0.5892
 2409DECAN   C624076   2.964   0.866   4.061 -0.1922  0.1274 -0.3507
 2409DECAN   C724077   3.066   0.979   4.086  0.0233 -0.1612  0.0848
 2409DECAN   C824078   3.022   1.107   4.011 -0.2443 -0.2695  0.0566
 2409DECAN   C924079   3.119   1.220   4.047 -0.2568 -0.1808 -0.1871
 2409DECAN  C1024080   3.081   1.366   4.017 -0.3700 -0.2922 -0.5821
 2410DECAN   C124081   2.644   1.906  12.369  0.3019  0.4474 -0.2219
 2410DECAN   C224082   2.781   1.908  12.298  0.4119 -0.6101 -0.0515
 2410DECAN   C324083   2.866   2.033  12.325  0.1592 -0.3594 -0.4045
 2410DECAN   C424084   2.800   2.168  12.288  0.1482 -0.1931  0.2010
 2410DECAN   C524085   2.823   2.223  12.146 -0.7160 -0.2590  0.0291
 2410DECAN   C624086   2.738   2.348  12.116 -0.1552  0.3555  0.9263
 2410DECAN   C724087   2.588   2.312  12.126 -0.2057  0.2883 -0.0235
 2410DECAN   C824088   2.503   2.415  12.049  0.2045  0.6129 -0.0462
 2410DECAN   C924089   2.360   2.362  12.027  0.3600 -0.1040  0.6255
 2410DECAN  C1024090   2.274   2.380  12.153  0.2559  0.0537  0.5322
 2411DECAN   C124091   4.047  10.218  13.254  0.2369  0.0545 -0.5436
 2411DECAN   C224092   3.905  10.279  13.262  0.0934 -0.3310 -0.0821
 2411DECAN   C324093   3.899  10.399  13.358 -0.4386 -0.0631 -0.4480
 2411DECAN   C424094   4.000  10.396  13.474 -0.5945 -1.1428 -0.3324
 2411DECAN   C524095   3.977  10.482  13.600  0.5983 -0.9438 -0.2409
 2411DECAN   C624096   4.100  10.483  13.693  0.3777  0.1410  0.0494
 2411DECAN   C724097   4.113  10.354  13.776 -0.1343  0.1227  0.1056
 2411DECAN   C824098   3.998  10.298  13.862 -0.2753  0.1634 -0.0567
 2411DECAN   C924099   4.034  10.175  13.946  0.1114  0.3268  0.0190
 2411DECAN  C1024100   3.908  10.105  14.001 -0.3690  0.9866 -0.2226
 2412DECAN   C124101  10.171   6.343   8.656  0.2099  0.4196 -0.4515
 2412DECAN   C224102  10.213   6.430   8.776 -0.2209 -0.0792  0.0613
 2412DECAN   C324103  10.134   6.425   8.908  0.6293 -0.1142  0.5828
 2412DECAN   C424104  10.096   6.288   8.967 -0.2820  0.3694  1.1444
 2412DECAN   C524105   9.978   6.229   8.887 -0.0489 -0.2389  1.2497
 2412DECAN   C624106   9.859   6.322   8.912  0.0746  0.2058  0.2509
 2412DECAN   C724107   9.726   6.274   8.851  0.5321 -0.4083 -0.2661
 2412DECAN   C824108   9.675   6.133   8.888 -0.1108 -0.1193 -0.0347
 2412DECAN   C924109   9.525   6.120   8.919 -0.1559 -0.0692 -0.2274
 2412DECAN  C1024110   9.479   5.984   8.973 -0.6168 -0.0457 -0.5565
 2413DECAN   C124111   5.484   4.722   5.392  0.7030  0.5090 -0.2867
 2413DECAN   C224112   5.533   4.578   5.371  0.5892  0.4564 -0.1952
 2413DECAN   C324113   5.645   4.527   5.463 -0.0888  0.1852  0.4902
 2413DECAN   C424114   5.669   4.376   5.439 -0.0972  0.1615  0.6286
 2413DECAN   C524115   5.775   4.305   5.525 -0.1320 -0.1260  0.4352
 2413DECAN   C624116   5.916   4.367   5.524 -0.1411 -0.1087  0.2280
 2413DECAN   C724117   6.011   4.322   5.636 -0.4570  0.4312  0.7231
 2413DECAN   C824118   6.156   4.371   5.614 -0.2757 -0.5249 -0.3860
 2413DECAN   C924119   6.241   4.368   5.742 -0.5836  0.4478 -0.1438
 2413DECAN  C1024120   6.358   4.468   5.732 -0.5954  0.5031  0.2335
 2414DECAN   C124121   9.612   2.063  10.128  0.4678  0.2619  0.1666
 2414DECAN   C224122   9.662   2.204  10.089 -0.1389  0.3726 -0.2181
 2414DECAN   C324123   9.811   2.227  10.061 -0.0924  0.1531 -0.1489
 2414DECAN   C424124   9.870   2.252  10.201  0.2206 -0.9264 -0.0782
 2414DECAN   C524125  10.022   2.258  10.182  0.1706 -0.3145 -0.2799
 2414DECAN   C624126  10.100   2.298  10.309 -0.5471  0.0918  0.0394
 2414DECAN   C724127  10.244   2.244  10.305 -0.2650  0.8627 -0.4257
 2414DECAN   C824128  10.304   2.300  10.174  0.3990  0.0686 -0.4671
 2414DECAN   C924129  10.444   2.249  10.136  0.6503  0.2715  0.1802
 2414DECAN  C1024130  10.449   2.095  10.131 -1.0226  0.1888  0.6151
 2415DECAN   C124131   4.461  10.897  10.648 -0.1221  0.2601  0.2588
 2415DECAN   C224132   4.500  10.906  10.499  0.1575  0.3694  0.3380
 2415DECAN   C324133   4.411  10.989  10.405  0.2131 -0.1666 -0.1986
 2415DECAN   C424134   4.439  10.983  10.254 -0.0581  0.0328 -0.2597
 2415DECAN   C524135   4.322  11.032  10.168 -0.1755  0.6026  0.2164
 2415DECAN   C624136   4.331  10.975  10.025 -0.5138 -0.4104  0.5902
 2415DECAN   C724137   4.194  10.988   9.956 -0.2889  0.0194  0.2183
 2415DECAN   C824138   4.079  10.903  10.012 -0.2017 -0.0808  0.2459
 2415DECAN   C924139   3.955  10.907   9.920  0.1764 -0.2271 -0.2766
 2415DECAN  C1024140   3.880  10.779   9.962  0.1392 -0.1240 -0.0247
 2416DECAN   C124141   1.314   9.405  10.935  0.4843  0.0963 -0.2042
 2416DECAN   C224142   1.209   9.332  11.021 -0.0723  0.5952 -0.4545
 2416DECAN   C324143   1.256   9.309  11.165  0.6132 -0.0096 -0.7676
 2416DECAN   C424144   1.294   9.162  11.191 -0.9834 -0.2548  0.2798
 2416DECAN   C524145   1.331   9.123  11.335 -0.1030 -0.0528  0.1095
 2416DECAN   C624146   1.362   8.973  11.346 -0.1109 -0.0364  0.3633
 2416DECAN   C724147   1.347   8.936  11.495 -0.1432  0.3943  0.4669
 2416DECAN   C824148   1.205   8.959  11.551 -0.3912 -0.2207  0.0918
 2416DECAN   C924149   1.171   8.881  11.679 -0.2169 -0.2168  0.1415
 2416DECAN  C1024150   1.023   8.906  11.713 -0.0503  0.4322  0.4074
 2417DECAN   C124151   4.233   9.451   6.461 -0.0099 -0.1041 -0.0176
 2417DECAN   C224152   4.109   9.515   6.527  0.2334  0.4288 -0.0723
 2417DECAN   C324153   4.049   9.427   6.638  0.0836  0.3742 -0.1952
 2417DECAN   C424154   4.124   9.392   6.768 -0.1287  0.3316 -0.0848
 2417DECAN   C524155   4.037   9.327   6.877  0.0703 -0.2506 -0.2708
 2417DECAN   C624156   3.979   9.188   6.843 -0.4607 -0.1499  0.2015
 2417DECAN   C724157   4.087   9.083   6.811 -0.1655  0.2176 -0.0194
 2417DECAN   C824158   4.028   8.946   6.773 -0.0706  0.2073 -0.1259
 2417DECAN   C924159   3.932   8.962   6.654  0.3646  0.1824 -0.4843
 2417DECAN  C1024160   3.888   8.826   6.595 -0.2820  0.3171 -0.3113
 2418DECAN   C124161   8.993   3.608   5.002  0.0899  0.7285 -0.0293
 2418DECAN   C224162   8.918   3.474   4.988  0.9809  0.2490 -0.2569
 2418DECAN   C324163   8.908   3.400   5.123 -0.0251  0.3568 -0.2653
 2418DECAN   C424164   8.861   3.495   5.234 -0.5003  0.1856 -0.3191
 2418DECAN   C524165   8.895   3.446   5.376  0.1455  0.4775 -0.3708
 2418DECAN   C624166   8.839   3.528   5.493 -0.2175 -0.2494 -0.0321
 2418DECAN   C724167   8.889   3.672   5.516 -0.0141 -0.2814 -0.2806
 2418DECAN   C824168   8.782   3.769   5.568  0.1452  0.1004 -0.6512
 2418DECAN   C924169   8.672   3.779   5.461 -0.5758  0.1166  0.0772
 2418DECAN  C1024170   8.749   3.821   5.334  0.2011 -0.2582  0.4206
 2419DECAN   C124171   6.408   8.902  14.127 -0.0534 -0.5457  0.1538
 2419DECAN   C224172   6.378   8.995  14.246 -0.2677  0.2963 -0.5443
 2419DECAN   C324173   6.237   8.984  14.307 -0.1462 -0.3012 -0.3625
 2419DECAN   C424174   6.142   9.066  14.218 -0.1231  0.3006  0.1617
 2419DECAN   C524175   5.996   9.075  14.267 -0.1923 -0.3854  0.0969
 2419DECAN   C624176   5.924   9.146  14.151  0.1077 -0.2610 -0.0131
 2419DECAN   C724177   5.903   9.052  14.031 -0.3200  0.2073 -0.3121
 2419DECAN   C824178   5.837   9.102  13.901 -0.5067  0.0849 -0.2653
 2419DECAN   C924179   5.788   9.003  13.794 -0.3463 -0.1399 -0.1307
 2419DECAN  C1024180   5.725   9.041  13.659 -0.2922  0.1350 -0.0786
 2420DECAN   C124181   2.375  10.709   5.675  0.5666 -0.0727  0.7094
 2420DECAN   C224182   2.296  10.658   5.797  0.3661 -0.4840  0.4077
 2420DECAN   C324183   2.318  10.733   5.929  0.1138  0.0373  0.1567
 2420DECAN   C424184   2.236  10.675   6.045 -0.6347  0.3820 -0.1968
 2420DECAN   C524185   2.271  10.734   6.183 -0.1841 -0.5868  0.1108
 2420DECAN   C624186   2.407  10.690   6.241 -0.0166 -0.0310  0.1423
 2420DECAN   C724187   2.429  10.739   6.385  0.0344  0.0820  0.0968
 2420DECAN   C824188   2.558  10.695   6.457  0.5980  0.6932 -0.5332
 2420DECAN   C924189   2.584  10.772   6.587 -0.1945  0.0810 -0.0042
 2420DECAN  C1024190   2.666  10.685   6.685 -0.4436 -0.0584  0.0817
 2421DECAN   C124191   6.336   1.607   6.880 -0.0870  0.6034  0.3136
 2421DECAN   C224192   6.299   1.481   6.798  0.7528  0.5124  0.0670
 2421DECAN   C324193   6.304   1.512   6.647 -0.0186  0.0156 -0.0641
 2421DECAN   C424194   6.281   1.382   6.567  0.2161  0.0953 -0.2627
 2421DECAN   C524195   6.245   1.399   6.418 -0.2191  0.0886 -0.1598
 2421DECAN   C624196   6.374   1.435   6.343 -0.0813 -0.0068  0.0310
 2421DECAN   C724197   6.415   1.564   6.416  0.0901 -0.0474  0.0066
 2421DECAN   C824198   6.508   1.653   6.332 -0.1563  0.2088  0.0053
 2421DECAN   C924199   6.552   1.786   6.396 -0.0169  0.1227  0.0885
 2421DECAN  C1024200   6.568   1.767   6.548  0.3277  0.2583  0.0684
 2422DECAN   C124201   6.642   1.216   5.592 -0.1609 -0.1821 -0.4842
 2422DECAN   C224202   6.708   1.355   5.592 -0.1921 -0.1629  0.5124
 2422DECAN   C324203   6.626   1.467   5.525  0.4351 -0.0421 -0.0642
 2422DECAN   C424204   6.541   1.404   5.414 -0.3489 -0.5791  0.8244
 2422DECAN   C524205   6.460   1.514   5.343 -0.2283 -0.7207  0.4672
 2422DECAN   C624206   6.390   1.473   5.212  0.3848 -0.6279  0.1040
 2422DECAN   C724207   6.277   1.372   5.241  0.7349 -1.0087  0.1519
 2422DECAN   C824208   6.218   1.336   5.103 -0.0376  0.5660  0.0360
 2422DECAN   C924209   6.069   1.303   5.119  0.0120  0.5004  0.3782
 2422DECAN  C1024210   6.042   1.182   5.209 -0.0100  0.1305 -0.1214
 2423DECAN   C124211   4.899   1.715  10.222  0.1532  0.5267 -0.0264
 2423DECAN   C224212   4.845   1.675  10.361 -0.0209 -0.0428 -0.2541
 2423DECAN   C324213   4.697   1.718  10.361  0.0298  0.1402  0.1516
 2423DECAN   C424214   4.617   1.677  10.486  0.4543  0.0526  0.3955
 2423DECAN   C524215   4.624   1.524  10.498  0.4287  0.0124 -0.0811
 2423DECAN   C624216   4.513   1.474  10.592  0.2882 -0.4690 -0.4980
 2423DECAN   C724217   4.504   1.323  10.620 -0.2880 -0.4018 -0.3147
 2423DECAN   C824218   4.386   1.281  10.710  0.3860 -0.9549  0.3238
 2423DECAN   C924219   4.393   1.139  10.769  0.0972 -1.0770  0.0656
 2423DECAN  C1024220   4.304   1.109  10.891 -0.3117 -0.5653 -0.1042
 2424DECAN   C124221   5.723   8.235  11.387 -0.0696  0.3524 -1.1436
 2424DECAN   C224222   5.802   8.104  11.401 -0.3334  0.2800 -0.2593
 2424DECAN   C324223   5.890   8.072  11.278 -0.3840 -0.0824 -0.2024
 2424DECAN   C424224   5.964   7.937  11.281 -0.1636  0.0465  0.3244
 2424DECAN   C524225   6.052   7.912  11.157  0.0045 -0.5956  0.5659
 2424DECAN   C624226   6.137   7.785  11.176  0.4122 -0.4447 -0.1787
 2424DECAN   C724227   6.188   7.729  11.043 -0.1506  0.0291 -0.6002
 2424DECAN   C824228   6.327   7.663  11.043 -0.2261 -0.1312 -0.1559
 2424DECAN   C924229   6.349   7.567  10.924 -0.2301  0.2257 -0.4462
 2424DECAN  C1024230   6.446   7.452  10.959 -0.4003  0.1019 -0.3837
 2425DECAN   C124231   8.363   8.429  13.768 -0.1925  0.0215  0.4136
 2425DECAN   C224232   8.350   8.378  13.623  0.4316 -0.4839  0.5296
 2425DECAN   C324233   8.236   8.454  13.554  0.6485 -0.4323  0.2277
 2425DECAN   C424234   8.201   8.408  13.411  0.7399  0.2519 -0.0213
 2425DECAN   C524235   8.308   8.450  13.308 -0.0710  0.8231 -0.6362
 2425DECAN   C624236   8.280   8.395  13.167  0.0602  0.1869 -0.4159
 2425DECAN   C724237   8.144   8.435  13.108 -0.1227  0.5010  0.2096
 2425DECAN   C824238   8.119   8.385  12.965 -0.2740 -0.5084  0.5801
 2425DECAN   C924239   7.977   8.430  12.926  0.3164  0.5865 -0.3871
 2425DECAN  C1024240   7.931   8.382  12.786  0.8151  0.2100 -0.4263
 2426DECAN   C124241   8.516   0.191  10.587  0.3322 -0.2368  0.1503
 2426DECAN   C224242   8.391   0.263  10.534  0.3434 -0.1322  0.2655
 2426DECAN   C324243   8.356   0.384  10.622  0.1018  0.0183 -0.0347
 2426DECAN   C424244   8.474   0.472  10.666  0.2584 -0.0038 -0.4117
 2426DECAN   C524245   8.605   0.399  10.701  0.0936  0.1626  0.5768
 2426DECAN   C624246   8.734   0.480  10.726  0.0135  0.4260  0.1505
 2426DECAN   C724247   8.865   0.400  10.726 -0.1119  0.2209 -0.0551
 2426DECAN   C824248   8.979   0.500  10.753 -0.0387  0.0561  0.2551
 2426DECAN   C924249   9.122   0.447  10.734 -0.0925 -0.0848  0.2440
 2426DECAN  C1024250   9.228   0.555  10.704 -0.4899  0.2128 -0.1044
 2427DECAN   C124251   5.057   0.713   9.889  0.1723  0.1512 -0.1614
 2427DECAN   C224252   4.982   0.823   9.813 -0.1170  0.3216  0.3700
 2427DECAN   C324253   4.869   0.893   9.892 -0.2870  0.6316 -0.1423
 2427DECAN   C424254   4.765   0.797   9.952  0.1115  0.4491  0.2683
 2427DECAN   C524255   4.656   0.760   9.850  0.3560 -0.8832  0.4794
 2427DECAN   C624256   4.538   0.673   9.898 -0.1440 -0.6147 -0.2526
 2427DECAN   C724257   4.427   0.676   9.791 -0.1608 -0.2912 -0.2257
 2427DECAN   C824258   4.490   0.637   9.656 -0.2235 -0.2639 -0.2644
 2427DECAN   C924259   4.379   0.645   9.550  0.2936  0.0985 -0.7854
 2427DECAN  C1024260   4.256   0.554   9.566  1.0124 -0.7859 -0.1877
 2428DECAN   C124261   3.340   6.343   5.045 -0.1711 -0.3934  0.1349
 2428DECAN   C224262   3.407   6.257   4.936 -0.3402  0.0979 -0.3605
 2428DECAN   C324263   3.556   6.286   4.909 -0.1100 -0.2142  0.5492
 2428DECAN   C424264   3.618   6.160   4.847 -0.2060 -0.1911  0.4046
 2428DECAN   C524265   3.549   6.133   4.712  0.1864  0.7108  0.0167
 2428DECAN   C624266   3.643   6.060   4.616 -0.1347  0.1225  0.1467
 2428DECAN   C724267   3.733   6.155   4.535  0.5146 -0.2909  0.3758
 2428DECAN   C824268   3.825   6.076   4.439  0.3393 -0.0860  0.0380
 2428DECAN   C924269   3.921   5.988   4.521 -0.3250 -0.3727  0.5175
 2428DECAN  C1024270   3.999   5.889   4.433  0.1288  0.4797 -0.0504
 2429DECAN   C124271   7.535  10.264  13.988  0.2728 -0.0552 -0.0029
 2429DECAN   C224272   7.449  10.370  13.917  0.3569  0.0867  0.1050
 2429DECAN   C324273   7.448  10.490  14.013 -0.2165  0.8263 -0.8155
 2429DECAN   C424274   7.362  10.609  13.966 -1.1266  0.3091 -0.4895
 2429DECAN   C524275   7.411  10.662  13.830  0.3377  0.5245  0.1059
 2429DECAN   C624276   7.332  10.779  13.770 -0.6424 -0.1090  0.1410
 2429DECAN   C724277   7.376  10.817  13.627  0.1255 -0.3448  0.3097
 2429DECAN   C824278   7.329  10.959  13.588  0.2523 -0.3673  0.0688
 2429DECAN   C924279   7.373  10.978  13.442 -0.0629 -0.2291 -0.0087
 2429DECAN  C1024280   7.327  11.113  13.384  0.2847 -0.0504  0.1235
 2430DECAN   C124281   9.046   4.398   6.765 -0.2330  0.5118 -0.0020
 2430DECAN   C224282   9.092   4.305   6.878 -0.1198 -0.1742 -0.6029
 2430DECAN   C324283   8.987   4.295   6.991  0.2364 -0.2242 -0.2734
 2430DECAN   C424284   9.028   4.209   7.111  0.7327  0.1044 -0.2008
 2430DECAN   C524285   8.933   4.198   7.232  0.1487 -0.0362 -0.6688
 2430DECAN   C624286   9.003   4.125   7.348 -0.0618  0.1348 -0.4335
 2430DECAN   C724287   8.923   4.113   7.479  0.3413 -0.1030 -0.2100
 2430DECAN   C824288   9.001   4.005   7.557  0.1714  0.1118  0.2609
 2430DECAN   C924289   8.973   4.015   7.708 -0.6896 -0.5793  0.1554
 2430DECAN  C1024290   9.043   3.903   7.787  0.1286 -0.2189 -0.0443
 2431DECAN   C124291   9.101  10.405  14.367 -0.0259 -0.2058  0.0202
 2431DECAN   C224292   9.105  10.390  14.213 -0.1779 -0.0108 -0.0019
 2431DECAN   C324293   9.176  10.509  14.146 -0.4769  0.1364 -0.0647
 2431DECAN   C424294   9.320  10.533  14.196 -0.3581  0.0217 -0.3492
 2431DECAN   C524295   9.383  10.666  14.152  0.3953 -0.1439  0.1959
 2431DECAN   C624296   9.293  10.791  14.166  0.2510 -0.1432 -0.6382
 2431DECAN   C724297   9.363  10.923  14.128 -0.3378  0.3568  0.0013
 2431DECAN   C824298   9.486  10.958  14.214  0.0868 -0.1982 -0.3771
 2431DECAN   C924299   9.547  11.094  14.175  0.0556 -0.1835 -0.3747
 2431DECAN  C1024300   9.659  11.067  14.072  0.1758 -0.2937 -0.2181
 2432DECAN   C124301   8.359   7.260   9.042 -0.1371  0.4036 -0.6337
 2432DECAN   C224302   8.485   7.340   9.080 -0.1173  0.1712 -0.2169
 2432DECAN   C324303   8.503   7.320   9.232 -0.1331  0.2578 -0.2026
 2432DECAN   C424304   8.620   7.403   9.290 -0.0686 -0.2783  0.4452
 2432DECAN   C524305   8.669   7.366   9.431  1.0662  0.0287  0.1453
 2432DECAN   C624306   8.750   7.470   9.510  0.0900  0.8777  0.0513
 2432DECAN   C724307   8.765   7.432   9.659 -0.0611  0.4661 -0.0375
 2432DECAN   C824308   8.879   7.502   9.734  0.1254 -0.1737  0.2843
 2432DECAN   C924309   8.910   7.418   9.859 -0.3727 -0.1054  0.4553
 2432DECAN  C1024310   9.027   7.473   9.943  0.0494 -0.0405 -0.1658
 2433DECAN   C124311  10.153   5.131   6.788  0.1001 -0.0825 -0.1122
 2433DECAN   C224312  10.044   5.139   6.679 -0.1596 -0.0382  0.1486
 2433DECAN   C324313   9.943   5.026   6.708  0.1747 -0.3819 -0.0192
 2433DECAN   C424314   9.829   4.993   6.610 -0.2582 -0.2677  0.4444
 2433DECAN   C524315   9.873   4.933   6.475 -0.4610 -0.1998  0.3474
 2433DECAN   C624316   9.753   4.910   6.382 -0.1879 -0.2463  0.0069
 2433DECAN   C724317   9.749   4.764   6.335  0.4335 -0.3179  0.1574
 2433DECAN   C824318   9.633   4.716   6.245  0.0095  0.8588  0.0652
 2433DECAN   C924319   9.675   4.623   6.130 -0.2835  0.1691  0.5063
 2433DECAN  C1024320   9.556   4.562   6.053 -0.0459 -0.1141  0.3672
 2434DECAN   C124321   5.982   0.434  13.427  0.6544 -0.3870  0.1225
 2434DECAN   C224322   5.948   0.425  13.577 -0.5647  0.2761 -0.0994
 2434DECAN   C324323   5.800   0.434  13.619 -0.5846  0.3133 -0.1769
 2434DECAN   C424324   5.750   0.313  13.699 -0.3723  0.4543  0.1708
 2434DECAN   C524325   5.597   0.300  13.709 -0.2943 -0.2417  0.5014
 2434DECAN   C624326   5.555   0.257  13.567  0.1291 -0.4928  0.4522
 2434DECAN   C724327   5.431   0.176  13.527 -0.3184  0.2021  0.4273
 2434DECAN   C824328   5.308   0.234  13.599 -0.2761  0.0679  0.6087
 2434DECAN   C924329   5.179   0.153  13.578 -0.1105 -0.0560  0.0685
 2434DECAN  C1024330   5.055   0.213  13.646  0.0526  0.0326  0.2863
 2435DECAN   C124331   1.054   2.079  11.451  0.3316 -0.2683  0.1061
 2435DECAN   C224332   1.049   1.959  11.355  0.7482 -0.7564  0.6880
 2435DECAN   C324333   1.180   1.944  11.276  0.3931 -0.4285  0.0240
 2435DECAN   C424334   1.288   1.905  11.379  0.2088 -0.1295  0.3311
 2435DECAN   C524335   1.343   2.025  11.459 -0.1704  0.4389 -0.2507
 2435DECAN   C624336   1.460   2.000  11.556 -0.4293 -0.3206 -0.1260
 2435DECAN   C724337   1.442   1.876  11.646 -0.6753 -0.3326 -0.1902
 2435DECAN   C824338   1.430   1.744  11.568  0.1069 -0.4102 -0.1828
 2435DECAN   C924339   1.404   1.614  11.646  0.2947  0.0628  0.6753
 2435DECAN  C1024340   1.422   1.494  11.553  0.2911  0.6330 -0.0672
 2436DECAN   C124341   3.764   0.144   5.460  0.3820 -0.1444 -0.0626
 2436DECAN   C224342   3.785   0.040   5.572  0.1028 -0.1385 -0.0054
 2436DECAN   C324343   3.778   0.099   5.714  0.5959 -0.0949  0.0025
 2436DECAN   C424344   3.783   0.004   5.835 -0.0834  0.1248  0.2092
 2436DECAN   C524345   3.920  11.178   5.850  0.0462  0.2940 -0.1824
 2436DECAN   C624346   3.950  11.068   5.747 -0.5298 -0.3650  0.3446
 2436DECAN   C724347   4.094  11.014   5.754 -0.4484 -0.2672 -0.4548
 2436DECAN   C824348   4.127  10.925   5.876 -0.6251 -0.0832 -0.2720
 2436DECAN   C924349   4.090  10.984   6.013  0.3870 -0.3220  0.1141
 2436DECAN  C1024350   4.134  10.889   6.126  0.3425  0.2828  0.6489
 2437DECAN   C124351   1.188   8.222   9.018 -0.0406 -0.2017  1.1103
 2437DECAN   C224352   1.324   8.290   9.045  0.0002  0.3163 -0.3013
 2437DECAN   C324353   1.422   8.289   8.926 -0.0937 -0.1426 -0.3803
 2437DECAN   C424354   1.370   8.366   8.803 -0.5021  0.0982 -0.0631
 2437DECAN   C524355   1.478   8.444   8.725 -0.1788  0.0746  0.3557
 2437DECAN   C624356   1.402   8.497   8.602  1.0886  0.2533 -0.3630
 2437DECAN   C724357   1.317   8.619   8.641  0.4190 -0.2194 -0.3260
 2437DECAN   C824358   1.251   8.689   8.520  0.0876 -0.1768 -0.1230
 2437DECAN   C924359   1.169   8.817   8.541  0.3852  0.0750 -0.4947
 2437DECAN  C1024360   1.246   8.904   8.642 -0.6698  0.6430 -0.1707
 2438DECAN   C124361   6.565   6.112  13.493  0.1982  0.2586  0.3041
 2438DECAN   C224362   6.614   5.975  13.442  0.3569  0.3009  0.3413
 2438DECAN   C324363   6.725   5.976  13.336 -0.3034 -0.3221 -0.3679
 2438DECAN   C424364   6.862   6.011  13.397 -0.4569 -0.6048  0.1388
 2438DECAN   C524365   6.987   6.034  13.310 -0.4089  0.0479  0.3764
 2438DECAN   C624366   7.116   6.067  13.387  0.0230 -0.1025 -0.2838
 2438DECAN   C724367   7.251   6.028  13.323  0.2074 -0.0066  0.0422
 2438DECAN   C824368   7.280   5.879  13.345 -0.1263 -0.0571  0.1432
 2438DECAN   C924369   7.423   5.829  13.318  0.1569  0.6719  0.2845
 2438DECAN  C1024370   7.441   5.692  13.386 -0.6038  0.3606 -0.1262
 2439DECAN   C124371   2.603   0.885  11.663  0.0192 -0.1085 -0.3960
 2439DECAN   C224372   2.527   0.754  11.636 -0.0074 -0.3283  0.7022
 2439DECAN   C324373   2.376   0.765  11.662 -0.1131 -0.2868  0.0762
 2439DECAN   C424374   2.291   0.639  11.636  0.1937 -0.7978  1.4859
 2439DECAN   C524375   2.144   0.659  11.677 -0.1398 -0.4536  0.1558
 2439DECAN   C624376   2.069   0.743  11.571 -0.3552  0.0599  0.7105
 2439DECAN   C724377   2.122   0.887  11.559 -0.3463 -0.0012  0.0211
 2439DECAN   C824378   2.082   0.968  11.434  0.3073 -0.0893 -0.2467
 2439DECAN   C924379   2.132   1.114  11.441 -0.0385  0.0224 -0.1244
 2439DECAN  C1024380   2.284   1.127  11.420  0.0093  0.1393  0.2864
 2440DECAN   C124381   2.686   9.260   9.938 -0.4469 -0.0810 -0.2950
 2440DECAN   C224382   2.821   9.255   9.863 -0.3769 -0.0934 -0.1684
 2440DECAN   C324383   2.937   9.262   9.964 -0.1065 -0.3254 -0.4610
 2440DECAN   C424384   3.075   9.276   9.897  0.3874 -0.3617  0.5465
 2440DECAN   C524385   3.192   9.287   9.998  0.5717 -0.0817  0.3023
 2440DECAN   C624386   3.224   9.171  10.094  0.1004 -0.2683  0.2349
 2440DECAN   C724387   3.110   9.104  10.173 -0.6805  0.4254 -0.2758
 2440DECAN   C824388   3.081   9.202  10.287 -0.1846  1.0559 -0.6871
 2440DECAN   C924389   2.937   9.200  10.344  0.1962 -0.1736  0.2782
 2440DECAN  C1024390   2.922   9.282  10.474  0.4622  0.0600  0.1653
 2441DECAN   C124391   3.628   6.356   6.431  0.1950  0.0244 -0.5051
 2441DECAN   C224392   3.565   6.410   6.302  0.4713  0.1873 -0.5726
 2441DECAN   C324393   3.440   6.498   6.323 -0.0788 -0.6284 -0.4215
 2441DECAN   C424394   3.342   6.528   6.208  0.5778 -0.5085 -0.9547
 2441DECAN   C524395   3.226   6.430   6.181 -0.2239  0.0845  0.2211
 2441DECAN   C624396   3.168   6.484   6.049  0.1805  0.3904  0.1636
 2441DECAN   C724397   3.101   6.621   6.068 -0.0693  0.3109 -0.1388
 2441DECAN   C824398   3.172   6.737   6.140  0.3560  0.2591 -0.4733
 2441DECAN   C924399   3.092   6.866   6.112  0.2145  0.2269 -0.2174
 2441DECAN  C1024400   3.177   6.985   6.159  0.0923  0.2468 -0.0459
 2442DECAN   C124401   5.014   1.910  13.002  0.0104 -0.2353  0.0724
 2442DECAN   C224402   4.973   1.918  13.150  0.5949 -0.1164  0.2312
 2442DECAN   C324403   5.091   1.960  13.241  0.6595  0.2601 -0.0257
 2442DECAN   C424404   5.048   1.983  13.387  0.5004  0.4690 -0.1036
 2442DECAN   C524405   5.171   2.020  13.473  0.2153 -0.0555  0.5379
 2442DECAN   C624406   5.154   2.005  13.625  0.2385 -0.5516  0.4931
 2442DECAN   C724407   5.268   2.069  13.706 -0.2574  0.2259  0.5910
 2442DECAN   C824408   5.284   2.220  13.682  0.0940  0.0627 -0.2522
 2442DECAN   C924409   5.402   2.276  13.763 -0.3621  0.3182  0.2489
 2442DECAN  C1024410   5.520   2.304  13.667 -0.7941  0.1302 -0.3399
 2443DECAN   C124411   2.429   4.074  12.409 -0.8176  0.0231  0.0316
 2443DECAN   C224412   2.337   4.191  12.448  0.1687  0.8685 -0.1402
 2443DECAN   C324413   2.285   4.196  12.593  0.3019  0.8342 -0.0916
 2443DECAN   C424414   2.171   4.296  12.618 -0.1735  0.3520 -0.2913
 2443DECAN   C524415   2.128   4.313  12.765  0.0874  0.5646 -0.2371
 2443DECAN   C624416   2.056   4.445  12.799  0.2220  0.5936 -0.0612
 2443DECAN   C724417   1.961   4.489  12.686  0.1361  0.1932 -0.1483
 2443DECAN   C824418   1.870   4.374  12.642 -0.7288  0.7847  0.0638
 2443DECAN   C924419   1.780   4.414  12.523 -0.8607 -0.0510 -0.1253
 2443DECAN  C1024420   1.691   4.532  12.566 -0.2642  0.5965 -0.6498
 2444DECAN   C124421   6.990  10.280   9.201  0.9845 -0.1279 -0.5564
 2444DECAN   C224422   7.014  10.431   9.185  0.3846  0.0168 -0.1387
 2444DECAN   C324423   7.151  10.456   9.119  0.3681 -0.0695 -0.2061
 2444DECAN   C424424   7.160  10.606   9.086 -0.3959  0.0664  0.1933
 2444DECAN   C524425   7.207  10.685   9.210  0.6055  0.2623 -0.3053
 2444DECAN   C624426   7.247  10.833   9.192  0.7602  0.2249 -0.2694
 2444DECAN   C724427   7.238  10.910   9.325  0.6517  0.4589 -0.4127
 2444DECAN   C824428   7.233  11.064   9.322 -0.5183  0.4281 -0.4480
 2444DECAN   C924429   7.208  11.115   9.465 -0.2614  0.3158 -0.3621
 2444DECAN  C1024430   7.333  11.144   9.550 -0.3196  0.3935 -0.3044
 2445DECAN   C124431   6.921   4.565  13.513 -0.2943  0.5114  0.2240
 2445DECAN   C224432   6.861   4.588  13.653 -0.0429 -0.5711  0.5175
 2445DECAN   C324433   6.949   4.688  13.731 -0.5052  0.4197 -0.2115
 2445DECAN   C424434   6.898   4.726  13.872 -0.2353  0.3483 -0.0949
 2445DECAN   C524435   7.011   4.802  13.945 -0.3613  0.4168  0.0284
 2445DECAN   C624436   6.967   4.861  14.080 -0.0188 -0.0976  0.3657
 2445DECAN   C724437   6.870   4.978  14.058 -0.1562 -0.3872 -0.5959
 2445DECAN   C824438   6.926   5.073  13.950 -0.3895 -0.0648 -0.4375
 2445DECAN   C924439   6.842   5.193  13.904 -0.7703 -0.2606 -0.2521
 2445DECAN  C1024440   6.904   5.252  13.776 -0.0574 -0.0051  0.2111
 2446DECAN   C124441   5.576   1.398   6.511 -0.3178 -0.0128 -0.4076
 2446DECAN   C224442   5.526   1.287   6.416 -0.7765 -0.1579 -0.0042
 2446DECAN   C324443   5.583   1.289   6.273  0.1518 -0.0296  0.3588
 2446DECAN   C424444   5.485   1.219   6.176  0.1714  0.0768  0.2626
 2446DECAN   C524445   5.533   1.232   6.030 -0.4205 -0.0554  0.0529
 2446DECAN   C624446   5.449   1.163   5.922 -0.0249 -0.1462 -0.1977
 2446DECAN   C724447   5.433   1.017   5.969 -0.1634 -0.1845 -0.3607
 2446DECAN   C824448   5.432   0.919   5.850  0.0083 -0.5455 -0.0686
 2446DECAN   C924449   5.570   0.897   5.787 -0.2827 -0.7199 -0.6543
 2446DECAN  C1024450   5.612   1.026   5.712 -0.7496  0.0649  0.4110
 2447DECAN   C124451  10.830   7.538  10.755  0.1369  0.4875 -0.0509
 2447DECAN   C224452  10.774   7.605  10.881  0.3494  0.1705  0.2129
 2447DECAN   C324453  10.748   7.757  10.887 -0.0568  0.0942  0.4390
 2447DECAN   C424454  10.681   7.805  11.017 -0.3100  0.0416  0.3283
 2447DECAN   C524455  10.715   7.951  11.050  0.1958 -0.0526  0.2398
 2447DECAN   C624456  10.628   8.042  10.962 -0.3193 -0.2161  0.5712
 2447DECAN   C724457  10.650   8.194  10.976 -1.0799 -0.0154 -0.2996
 2447DECAN   C824458  10.644   8.242  11.122  0.1106 -0.7414  0.0057
 2447DECAN   C924459  10.508   8.219  11.189  0.0210 -0.0447  0.0780
 2447DECAN  C1024460  10.518   8.267  11.335  0.0294 -0.6131  0.2716
 2448DECAN   C124461   5.621   4.324  15.108 -0.0037  0.2291 -0.0772
 2448DECAN   C224462   5.680   4.185  15.080 -0.5121  0.0080 -0.0627
 2448DECAN   C324463   5.834   4.181  15.075 -0.5196 -0.3565 -0.0954
 2448DECAN   C424464   5.886   4.286  14.974 -0.4630  0.1200  0.4233
 2448DECAN   C524465   6.020   4.259  14.903 -0.4099  0.6194  0.3319
 2448DECAN   C624466   6.043   4.358  14.787 -0.5812 -0.0648 -0.2905
 2448DECAN   C724467   6.155   4.319  14.689 -0.5423 -0.2174 -0.1857
 2448DECAN   C824468   6.128   4.185  14.617 -0.0880 -0.2244 -0.3459
 2448DECAN   C924469   6.233   4.135  14.517  0.2529  0.1635 -0.1857
 2448DECAN  C1024470   6.362   4.089  14.589  0.2170 -0.3131 -0.4168
 2449DECAN   C124471   3.425   7.153  14.471  0.0387  0.4692 -0.0172
 2449DECAN   C224472   3.492   7.198  14.339  0.1490  0.5891  0.0795
 2449DECAN   C324473   3.434   7.139  14.209  0.0997 -0.1026  0.4086
 2449DECAN   C424474   3.512   7.152  14.077  0.1411  0.3386  0.4767
 2449DECAN   C524475   3.446   7.087  13.954  0.7014  0.3020  0.1904
 2449DECAN   C624476   3.535   7.080  13.829 -0.0350 -0.1448 -0.3201
 2449DECAN   C724477   3.484   6.993  13.713 -0.1995 -0.0253 -0.3381
 2449DECAN   C824478   3.568   7.010  13.585 -0.0326  0.1041 -0.2111
 2449DECAN   C924479   3.492   6.972  13.457  0.3357 -0.2567 -0.3266
 2449DECAN  C1024480   3.574   6.971  13.327 -0.1170 -0.7045 -0.6106
 2450DECAN   C124481   2.464   1.473  13.389 -0.4469  0.1189 -0.8030
 2450DECAN   C224482   2.473   1.620  13.347 -0.2617  0.3953  0.1855
 2450DECAN   C324483   2.358   1.699  13.415 -0.6916  0.2429 -0.3595
 2450DECAN   C424484   2.387   1.850  13.408  0.1643  0.0925 -0.1776
 2450DECAN   C524485   2.370   1.896  13.262  0.0047 -0.5807 -0.3762
 2450DECAN   C624486   2.501   1.876  13.183  0.1378 -0.1140 -0.2783
 2450DECAN   C724487   2.498   1.930  13.039  0.0582  0.0282 -0.2242
 2450DECAN   C824488   2.621   1.907  12.949  0.7082  0.0858  0.6421
 2450DECAN   C924489   2.612   1.988  12.819  0.4353 -0.1186  0.5311
 2450DECAN  C1024490   2.735   1.975  12.727  0.1811  0.3715  0.1147
 2451DECAN   C124491   1.966   7.357   8.645 -0.2910  0.3229 -0.5337
 2451DECAN   C224492   2.105   7.412   8.679 -0.5389  0.2278  0.6840
 2451DECAN   C324493   2.130   7.529   8.583 -0.4486 -0.2302  0.1380
 2451DECAN   C424494   2.186   7.484   8.448 -0.5273  0.1968 -0.0400
 2451DECAN   C524495   2.241   7.587   8.348 -0.2971  0.0034 -0.1143
 2451DECAN   C624496   2.334   7.528   8.240 -0.0424 -0.4889  0.3711
 2451DECAN   C724497   2.413   7.636   8.165  0.0645 -0.8130  0.0141
 2451DECAN   C824498   2.519   7.589   8.063  0.4132  0.4570 -0.2318
 2451DECAN   C924499   2.463   7.626   7.924  0.1800  0.0276 -0.2559
 2451DECAN  C1024500   2.546   7.578   7.804 -0.3083 -0.0666 -0.5566
 2452DECAN   C124501   3.569   7.749  10.714 -0.6138  0.1402 -0.3106
 2452DECAN   C224502   3.557   7.862  10.609 -0.4988  0.4237 -0.0230
 2452DECAN   C324503   3.512   7.805  10.473 -0.6026  0.3305  0.0494
 2452DECAN   C424504   3.502   7.931  10.384  0.2183  0.2601 -0.1482
 2452DECAN   C524505   3.464   7.914  10.236 -0.7500 -0.3792  0.1645
 2452DECAN   C624506   3.509   8.037  10.155 -1.5242 -0.3504 -0.2342
 2452DECAN   C724507   3.455   8.171  10.209  0.2277  0.2164  0.2105
 2452DECAN   C824508   3.479   8.288  10.112 -0.2328  0.2678  0.1545
 2452DECAN   C924509   3.444   8.426  10.171 -0.3816 -0.0311  0.7730
 2452DECAN  C1024510   3.496   8.538  10.080 -0.1176 -0.2275  0.6793
 2453DECAN   C124511   3.175   2.140  11.448  0.2843  0.1455 -0.2470
 2453DECAN   C224512   3.089   2.145  11.575 -0.1880  0.4319 -0.5760
 2453DECAN   C324513   2.938   2.172  11.574 -0.3145 -0.1558  0.5707
 2453DECAN   C424514   2.852   2.045  11.557 -0.3406 -0.0331 -0.2872
 2453DECAN   C524515   2.707   2.081  11.520 -0.2999  0.5046  0.0672
 2453DECAN   C624516   2.617   2.119  11.639 -0.2147  0.1113  0.2555
 2453DECAN   C724517   2.579   1.997  11.725  0.5254 -0.1399  0.2360
 2453DECAN   C824518   2.490   2.024  11.847 -0.1922 -0.2574 -0.2545
 2453DECAN   C924519   2.483   1.904  11.942  0.3767  0.0663  0.2032
 2453DECAN  C1024520   2.397   1.942  12.064 -0.3078  0.4602 -0.3972
 2454DECAN   C124521   2.470   0.107   4.229  0.1270  0.0703 -0.5333
 2454DECAN   C224522   2.486   0.001   4.340  0.6003 -0.1878 -0.8429
 2454DECAN   C324523   2.576   0.052   4.455 -0.3202  0.5546 -0.4317
 2454DECAN   C424524   2.528   0.186   4.513  0.0108  0.3929  0.2256
 2454DECAN   C524525   2.624   0.251   4.614  0.3974  0.2687 -0.0590
 2454DECAN   C624526   2.573   0.379   4.682 -0.0652 -0.1772  0.4404
 2454DECAN   C724527   2.642   0.417   4.814  0.1727 -0.2565  0.3390
 2454DECAN   C824528   2.795   0.423   4.801  0.1335 -0.3702 -0.1687
 2454DECAN   C924529   2.841   0.520   4.691  0.0388 -0.3136 -0.1578
 2454DECAN  C1024530   2.989   0.551   4.662 -0.1039  0.4205 -0.1311
 2455DECAN   C124531   7.401  10.256  12.025  0.1654 -0.0679  1.0046
 2455DECAN   C224532   7.490  10.382  12.025 -0.0538  0.0872  0.1439
 2455DECAN   C324533   7.470  10.463  11.895  0.7302  0.3871  0.2044
 2455DECAN   C424534   7.328  10.508  11.857  0.7220  0.0322 -0.1859
 2455DECAN   C524535   7.266  10.618  11.944 -0.3559 -0.5115 -0.2484
 2455DECAN   C624536   7.272  10.603  12.097  0.2480  0.4008 -0.1764
 2455DECAN   C724537   7.186  10.705  12.174 -0.0626 -0.3324  0.4653
 2455DECAN   C824538   7.211  10.684  12.324  0.1565 -0.2455  0.4413
 2455DECAN   C924539   7.138  10.793  12.405  0.2973  0.1571  0.0324
 2455DECAN  C1024540   7.159  10.783  12.558 -0.5189  0.2577  0.1556
 2456DECAN   C124541   9.893  10.369   4.996 -0.0917 -0.2214  0.2156
 2456DECAN   C224542   9.889  10.435   5.135 -0.5174 -0.3236  0.2554
 2456DECAN   C324543   9.900  10.333   5.250 -0.4804 -0.5392  0.0593
 2456DECAN   C424544   9.847  10.400   5.378  0.0428 -0.4411  0.2246
 2456DECAN   C524545   9.697  10.382   5.404 -0.0243 -0.2731 -0.0418
 2456DECAN   C624546   9.608  10.446   5.296  0.0170  0.1209  0.1590
 2456DECAN   C724547   9.481  10.489   5.371 -0.1284 -0.0273 -0.0013
 2456DECAN   C824548   9.383  10.562   5.277 -0.4817 -0.4196  0.0613
 2456DECAN   C924549   9.236  10.573   5.322 -0.5957 -0.1619 -0.3708
 2456DECAN  C1024550   9.216  10.715   5.379  0.5638 -0.0458 -0.2313
 2457DECAN   C124551   1.444  10.797   7.434 -0.1883  0.0344  0.4184
 2457DECAN   C224552   1.561  10.890   7.397 -0.2139 -0.0207  0.1964
 2457DECAN   C324553   1.653  10.852   7.280 -0.4159  0.2952 -0.0653
 2457DECAN   C424554   1.772  10.943   7.244  0.0990 -0.2587  0.2119
 2457DECAN   C524555   1.873  10.870   7.154  0.5080  0.1944  0.2982
 2457DECAN   C624556   2.003  10.952   7.145  0.4797  0.2315  0.2230
 2457DECAN   C724557   2.082  10.930   7.014  0.4610 -0.3439  0.3089
 2457DECAN   C824558   2.187  11.039   6.985 -0.3452  0.3135 -0.1866
 2457DECAN   C924559   2.239  11.039   6.840  0.2293 -0.6166  0.0108
 2457DECAN  C1024560   2.133  11.071   6.733  0.1926  0.1807  0.2772
 2458DECAN   C124561   7.826   8.312   7.258 -0.3396 -0.1234 -0.0276
 2458DECAN   C224562   7.725   8.353   7.367  0.1223 -0.0165  0.3590
 2458DECAN   C324563   7.597   8.270   7.386  0.3569 -0.3767  0.3609
 2458DECAN   C424564   7.513   8.320   7.504  0.6116 -0.4367  0.5700
 2458DECAN   C524565   7.361   8.314   7.480  0.6607  0.1177  0.1086
 2458DECAN   C624566   7.287   8.408   7.577  0.3148 -0.1837  0.1360
 2458DECAN   C724567   7.310   8.557   7.549  0.1168 -0.1500  0.1455
 2458DECAN   C824568   7.224   8.652   7.636 -0.3684 -0.2113 -0.2641
 2458DECAN   C924569   7.252   8.802   7.616  0.0533 -0.2539  0.0093
 2458DECAN  C1024570   7.149   8.896   7.679 -0.2926 -0.2380 -0.5757
 2459DECAN   C124571   9.866   7.418  11.876  0.0380 -0.1140 -0.1246
 2459DECAN   C224572   9.951   7.316  11.953  0.0760 -0.1233 -0.1802
 2459DECAN   C324573   9.969   7.352  12.102  0.0727 -0.4659 -0.0962
 2459DECAN   C424574  10.048   7.239  12.172 -0.5194 -0.6914  0.2166
 2459DECAN   C524575  10.068   7.278  12.320  0.0551 -0.2907  0.0380
 2459DECAN   C624576  10.130   7.163  12.401 -0.0592 -0.3710  0.0120
 2459DECAN   C724577  10.051   7.031  12.402 -0.2013 -0.2973 -0.7923
 2459DECAN   C824578  10.125   6.915  12.470  0.0034  0.1735 -0.1999
 2459DECAN   C924579  10.254   6.874  12.397 -0.1384  0.0706 -0.3933
 2459DECAN  C1024580  10.313   6.739  12.443  0.1067  0.3038 -0.0242
 2460DECAN   C124581   7.212   5.368   6.417 -0.1286  0.2101  0.3642
 2460DECAN   C224582   7.097   5.265   6.421  0.1027 -0.0681 -0.0703
 2460DECAN   C324583   7.117   5.177   6.546 -0.9547 -0.7280 -0.3529
 2460DECAN   C424584   7.088   5.235   6.685  0.0330 -0.4333 -0.2601
 2460DECAN   C524585   7.134   5.149   6.804 -0.5140 -0.3948 -0.0168
 2460DECAN   C624586   7.285   5.125   6.827 -0.3902  0.3054 -0.0851
 2460DECAN   C724587   7.363   5.257   6.842 -0.3447  0.1546  1.0583
 2460DECAN   C824588   7.515   5.241   6.866 -0.1798  0.2340  0.0830
 2460DECAN   C924589   7.586   5.373   6.900 -0.2739  0.2685  0.1450
 2460DECAN  C1024590   7.739   5.367   6.915 -0.2484 -0.4796 -0.4164
 2461DECAN   C124591   6.844   7.560  10.988 -0.5750 -0.6512  0.2379
 2461DECAN   C224592   6.894   7.500  10.855 -0.3323 -0.0327  0.0498
 2461DECAN   C324593   6.862   7.585  10.731 -0.0973  0.1751  0.1299
 2461DECAN   C424594   6.929   7.532  10.602 -0.1419 -0.0011  0.1797
 2461DECAN   C524595   6.880   7.601  10.474 -0.2928  0.1240  0.3034
 2461DECAN   C624596   6.965   7.561  10.352  0.2333  0.5459  0.5245
 2461DECAN   C724597   6.887   7.602  10.226  0.4572  0.3597  0.3236
 2461DECAN   C824598   6.897   7.755  10.220  0.5581  0.3328 -0.2319
 2461DECAN   C924599   6.821   7.805  10.095 -0.0807 -0.1597 -0.0430
 2461DECAN  C1024600   6.834   7.957  10.075  0.3728 -0.1175  0.5508
 2462DECAN   C124601   9.678   0.945  11.322 -0.2885  0.6645 -0.3911
 2462DECAN   C224602   9.600   0.854  11.418 -0.2880  0.3551 -0.6843
 2462DECAN   C324603   9.579   0.710  11.366  0.2774 -0.1105  0.3498
 2462DECAN   C424604   9.467   0.629  11.434  0.3360  0.0261  0.6110
 2462DECAN   C524605   9.453   0.491  11.367 -1.0171  0.3529  0.1769
 2462DECAN   C624606   9.398   0.509  11.225  0.3926  0.0381 -0.4329
 2462DECAN   C724607   9.413   0.378  11.147  0.4569 -0.1888 -0.0408
 2462DECAN   C824608   9.406   0.391  10.994  0.0773  0.1582  0.0054
 2462DECAN   C924609   9.440   0.265  10.912 -0.0990 -0.2261  0.5173
 2462DECAN  C1024610   9.341   0.147  10.900  0.1694 -0.3603 -0.4999
 2463DECAN   C124611   1.616   9.014   7.600 -0.1032 -0.4686  0.3266
 2463DECAN   C224612   1.684   8.968   7.470 -0.2916 -0.5340  0.2503
 2463DECAN   C324613   1.638   9.037   7.340  0.1208 -0.7723 -0.0240
 2463DECAN   C424614   1.711   9.005   7.208  0.8435  0.1861  0.1310
 2463DECAN   C524615   1.648   8.892   7.125  0.0318  0.4512  0.3784
 2463DECAN   C624616   1.714   8.858   6.990 -0.1336 -0.4366  0.5170
 2463DECAN   C724617   1.635   8.760   6.901 -0.6747  0.4572 -0.0002
 2463DECAN   C824618   1.705   8.709   6.774 -0.1589 -0.3882  0.6096
 2463DECAN   C924619   1.812   8.601   6.796  0.3566  0.0794  0.4430
 2463DECAN  C1024620   1.750   8.489   6.882 -0.1963  0.3336  0.3745
 2464DECAN   C124621   3.238   5.051  13.142 -0.0899 -0.4714 -0.2526
 2464DECAN   C224622   3.125   5.156  13.146 -0.0203 -0.4111  0.1282
 2464DECAN   C324623   3.080   5.194  13.289  0.0701 -0.2161  0.1050
 2464DECAN   C424624   3.025   5.071  13.365  0.3279 -0.2575  0.2255
 2464DECAN   C524625   2.940   5.091  13.491  0.1799 -0.4691  0.1591
 2464DECAN   C624626   2.865   4.963  13.531  0.4559 -0.6153  0.2109
 2464DECAN   C724627   2.791   4.977  13.665  0.2524  0.2486  0.0111
 2464DECAN   C824628   2.705   5.102  13.694  0.0221 -0.0350  0.5575
 2464DECAN   C924629   2.637   5.105  13.833  0.1783 -0.3036  0.6414
 2464DECAN  C1024630   2.519   5.007  13.851  0.1610 -0.3355  0.3599
 2465DECAN   C124631   6.046   0.840  13.812 -0.0879  0.6109 -0.2981
 2465DECAN   C224632   5.929   0.840  13.712 -0.6710  0.1079  0.3793
 2465DECAN   C324633   5.963   0.863  13.564 -0.4154 -0.0619  0.4119
 2465DECAN   C424634   5.841   0.832  13.475  0.1879 -0.6121 -0.2409
 2465DECAN   C524635   5.859   0.860  13.325  0.3142 -0.1538 -0.1403
 2465DECAN   C624636   5.746   0.801  13.239  0.1636 -0.3572  0.1981
 2465DECAN   C724637   5.747   0.843  13.091  0.0988  0.0003  0.2996
 2465DECAN   C824638   5.858   0.765  13.018 -0.1738  0.1165 -0.2412
 2465DECAN   C924639   5.861   0.812  12.871  0.1071  0.3393 -0.1654
 2465DECAN  C1024640   5.926   0.707  12.779 -0.3934  0.2261 -0.3930
 2466DECAN   C124641   1.793  10.319   8.477  0.0163 -0.0530  0.1315
 2466DECAN   C224642   1.847  10.190   8.414 -1.1424 -0.7960  0.6180
 2466DECAN   C324643   1.946  10.130   8.516  0.1630  0.3828  0.0855
 2466DECAN   C424644   1.878  10.130   8.654  0.1881 -0.1546  0.1024
 2466DECAN   C524645   1.961  10.071   8.770 -0.6586  0.4522  1.0413
 2466DECAN   C624646   2.088  10.155   8.795 -0.1778 -0.1647  0.6804
 2466DECAN   C724647   2.215  10.129   8.710 -0.5671  0.0746  0.0180
 2466DECAN   C824648   2.310  10.250   8.703 -0.2445 -0.1793  0.0211
 2466DECAN   C924649   2.436  10.209   8.625 -0.3401  0.0830 -0.2697
 2466DECAN  C1024650   2.538  10.323   8.602 -0.3334  0.0807 -0.2529
 2467DECAN   C124651   1.034   5.466   9.612  0.2103  0.1044 -0.3463
 2467DECAN   C224652   1.124   5.454   9.487  0.0604  0.2564 -0.4693
 2467DECAN   C324653   1.159   5.589   9.422  0.5680  0.5296  0.3575
 2467DECAN   C424654   1.233   5.560   9.290 -0.3115  0.1842 -0.0677
 2467DECAN   C524655   1.310   5.679   9.229 -0.0208 -0.1100 -0.2781
 2467DECAN   C624656   1.412   5.648   9.119  0.0455 -0.6822 -0.0589
 2467DECAN   C724657   1.552   5.614   9.173  0.1904 -0.0860 -0.0538
 2467DECAN   C824658   1.649   5.552   9.072  0.1092  0.1781 -0.2950
 2467DECAN   C924659   1.790   5.527   9.131  0.0147  0.4476  0.0444
 2467DECAN  C1024660   1.898   5.487   9.030 -0.0797  0.1996  0.0406
 2468DECAN   C124661   7.424  10.505   5.746  0.6175 -0.1524 -1.2206
 2468DECAN   C224662   7.529  10.615   5.771  0.2525 -0.0690  0.0520
 2468DECAN   C324663   7.559  10.701   5.647  0.0772  0.0135  0.0673
 2468DECAN   C424664   7.607  10.617   5.528 -0.2784  0.5600 -0.4710
 2468DECAN   C524665   7.627  10.710   5.406 -0.1973  0.6105 -0.4199
 2468DECAN   C624666   7.661  10.619   5.286 -0.1961  0.6358 -0.4391
 2468DECAN   C724667   7.704  10.698   5.161  0.7904  0.3517 -0.2899
 2468DECAN   C824668   7.595  10.779   5.088 -0.1519 -0.4858  0.1604
 2468DECAN   C924669   7.493  10.849   5.180 -0.3094 -0.4662 -0.0304
 2468DECAN  C1024670   7.394  10.937   5.101  0.3160  0.1179 -0.1634
 2469DECAN   C124671   9.156   7.876  15.123 -0.2083 -0.2651  0.5550
 2469DECAN   C224672   9.255   7.781  15.053 -0.7357 -0.1415 -0.3844
 2469DECAN   C324673   9.390   7.853  15.035 -0.4599 -0.5978 -0.1319
 2469DECAN   C424674   9.392   7.946  14.913 -0.0909 -0.0362  0.2962
 2469DECAN   C524675   9.531   7.990  14.864 -0.1397 -0.0555  0.1379
 2469DECAN   C624676   9.609   8.077  14.965 -0.0137 -0.4476  0.3827
 2469DECAN   C724677   9.751   8.124  14.928  0.0097 -0.2918  0.6664
 2469DECAN   C824678   9.864   8.020  14.934  0.0446 -0.3559 -0.7122
 2469DECAN   C924679   9.987   8.059  14.850  0.3169 -0.2282 -0.2605
 2469DECAN  C1024680  10.073   7.933  14.829  0.6291 -0.0821  0.1334
 2470DECAN   C124681   9.906   4.749  10.368  0.2844  0.0740  0.0580
 2470DECAN   C224682   9.843   4.742  10.227  0.9959 -0.1511 -0.2512
 2470DECAN   C324683   9.832   4.599  10.170 -0.1265 -0.3185  0.3706
 2470DECAN   C424684   9.745   4.595  10.043  0.0037  0.0336  0.2681
 2470DECAN   C524685   9.684   4.455  10.025  0.9177 -0.2990 -0.3333
 2470DECAN   C624686   9.587   4.449   9.905  0.0451  0.2952  0.3212
 2470DECAN   C724687   9.494   4.328   9.888  0.0002  0.3191  0.4004
 2470DECAN   C824688   9.555   4.187   9.898 -0.7062 -0.0779 -0.6614
 2470DECAN   C924689   9.663   4.127   9.806 -0.2790 -0.1958 -0.0907
 2470DECAN  C1024690   9.718   3.993   9.860 -0.4728 -0.2412 -0.0046
 2471DECAN   C124691   9.708   7.530   6.780 -0.5012 -0.1348 -0.5481
 2471DECAN   C224692   9.732   7.388   6.836 -0.2257  0.1925  0.1705
 2471DECAN   C324693   9.879   7.343   6.843 -0.1948  0.2661 -0.0086
 2471DECAN   C424694   9.887   7.190   6.853 -0.3923  0.2321 -0.3404
 2471DECAN   C524695   9.793   7.142   6.966  0.1333  0.1902  0.0843
 2471DECAN   C624696   9.792   6.988   6.975  0.0646  0.2208  0.6198
 2471DECAN   C724697   9.918   6.930   7.042  0.0936 -0.0101  0.3669
 2471DECAN   C824698   9.942   6.779   7.025  0.2225  0.0696 -0.1609
 2471DECAN   C924699  10.065   6.731   7.106 -0.1541 -0.5617  0.0453
 2471DECAN  C1024700  10.093   6.581   7.091  0.6705 -0.4292  0.2526
 2472DECAN   C124701   3.650   3.907   8.052 -0.2938 -0.3057  0.0933
 2472DECAN   C224702   3.672   3.765   7.996  0.6300 -0.0648 -0.1748
 2472DECAN   C324703   3.699   3.747   7.845  0.5438  0.4353 -0.2522
 2472DECAN   C424704   3.642   3.610   7.805  0.8500  0.1452  0.2806
 2472DECAN   C524705   3.677   3.576   7.658 -0.5377 -0.0358 -0.0207
 2472DECAN   C624706   3.826   3.538   7.648 -0.3242  0.8565 -0.3384
 2472DECAN   C724707   3.880   3.498   7.510 -0.0615 -0.1686  0.0542
 2472DECAN   C824708   4.022   3.446   7.480 -0.1818 -0.1964 -0.4674
 2472DECAN   C924709   4.042   3.407   7.332 -0.0259 -0.5693 -0.3487
 2472DECAN  C1024710   4.184   3.362   7.292  0.3470  0.6441 -0.4098
 2473DECAN   C124711   2.623   5.380  12.319  0.2915 -0.0029 -0.9925
 2473DECAN   C224712   2.599   5.420  12.172  0.2950  0.5768 -0.8386
 2473DECAN   C324713   2.536   5.311  12.084 -0.3150 -0.1024  0.3989
 2473DECAN   C424714   2.611   5.177  12.075 -0.1590  0.0041  0.0966
 2473DECAN   C524715   2.604   5.101  11.941  0.0490  0.2430 -0.0525
 2473DECAN   C624716   2.720   5.001  11.922  0.3071  0.5530 -0.1186
 2473DECAN   C724717   2.719   4.924  11.788  0.1234  0.4062 -0.0331
 2473DECAN   C824718   2.756   5.015  11.670  0.3532  0.1752 -0.1405
 2473DECAN   C924719   2.745   4.943  11.534 -0.0160 -0.0156 -0.0105
 2473DECAN  C1024720   2.836   4.823  11.502  0.2021  0.2937 -0.5582
 2474DECAN   C124721   1.578   6.534   9.463  0.0258 -0.0147 -0.3736
 2474DECAN   C224722   1.454   6.614   9.507 -0.0476 -0.1895 -0.2598
 2474DECAN   C324723   1.410   6.709   9.394  0.2144  0.3974  0.1286
 2474DECAN   C424724   1.303   6.813   9.432 -0.6021 -0.4442  0.1475
 2474DECAN   C524725   1.305   6.871   9.575  0.0022 -0.0857 -0.0059
 2474DECAN   C624726   1.189   6.968   9.602  0.0822  0.0912 -0.2951
 2474DECAN   C724727   1.200   7.020   9.746  0.0233 -0.3793 -0.1189
 2474DECAN   C824728   1.082   7.115   9.775  0.2064 -0.2228  0.1177
 2474DECAN   C924729   1.099   7.185   9.911 -0.4671  0.1316  0.0215
 2474DECAN  C1024730   0.982   7.275   9.956 -0.2482  0.4106  0.0320
 2475DECAN   C124731   1.663   6.963  10.988  0.2830 -0.4754  0.6037
 2475DECAN   C224732   1.579   6.925  11.111 -0.0195 -0.0555  0.5303
 2475DECAN   C324733   1.436   6.981  11.115 -0.2475 -0.5801 -0.1499
 2475DECAN   C424734   1.335   6.954  11.001  0.1479  0.3934 -0.7445
 2475DECAN   C524735   1.219   7.054  11.013 -0.0685  0.0685 -0.0264
 2475DECAN   C624736   1.120   7.053  10.895  0.0930  0.3006 -0.1649
 2475DECAN   C724737   1.168   7.136  10.774  0.0342  0.5024 -0.0520
 2475DECAN   C824738   1.076   7.102  10.655 -0.0751 -0.1265  0.2040
 2475DECAN   C924739   1.107   7.181  10.526 -0.1524  0.2798  0.4309
 2475DECAN  C1024740   1.102   7.334  10.539  0.2162  0.3373 -0.0893
 2476DECAN   C124741   5.710   1.203   5.136 -0.4272 -0.1146 -0.2705
 2476DECAN   C224742   5.601   1.094   5.131 -0.3054 -0.2476 -0.0317
 2476DECAN   C324743   5.461   1.141   5.173  0.0432  0.5933  0.2264
 2476DECAN   C424744   5.455   1.200   5.315 -0.2216  0.2748  0.3501
 2476DECAN   C524745   5.322   1.242   5.381 -0.3236 -0.0855  0.3730
 2476DECAN   C624746   5.327   1.238   5.535  0.4992 -0.2073  0.3452
 2476DECAN   C724747   5.198   1.284   5.604  0.3876 -0.0076  0.0054
 2476DECAN   C824748   5.154   1.429   5.576 -0.4053 -0.1293  0.5655
 2476DECAN   C924749   5.149   1.448   5.423 -0.5587 -0.5259  0.5175
 2476DECAN  C1024750   5.135   1.595   5.377  0.0796 -0.6622 -0.1285
 2477DECAN   C124751   7.127   5.520   9.657  0.1534 -0.2408 -0.3489
 2477DECAN   C224752   7.102   5.560   9.511 -0.2563  1.1684  0.0949
 2477DECAN   C324753   6.967   5.632   9.492 -1.2036 -0.5469  0.0824
 2477DECAN   C424754   6.935   5.680   9.349 -0.0060  0.0793  0.0087
 2477DECAN   C524755   6.794   5.741   9.345  0.0936  0.3013 -0.1130
 2477DECAN   C624756   6.711   5.727   9.216  0.2179 -0.0128 -0.1580
 2477DECAN   C724757   6.558   5.739   9.234  0.2206 -0.2217  0.0150
 2477DECAN   C824758   6.481   5.781   9.107 -1.0737 -1.2477  0.4359
 2477DECAN   C924759   6.484   5.679   8.992  0.5961 -0.4766 -0.2311
 2477DECAN  C1024760   6.430   5.751   8.867  0.4057 -0.1895  0.0155
 2478DECAN   C124761   7.305   3.852   3.842  0.4555 -0.0261 -0.2664
 2478DECAN   C224762   7.234   3.950   3.937  0.5508  0.0095 -0.2326
 2478DECAN   C324763   7.263   4.097   3.904  0.1344  0.1320 -0.0598
 2478DECAN   C424764   7.174   4.195   3.984  0.2448  0.3194 -0.1655
 2478DECAN   C524765   7.199   4.342   3.946 -0.0010  0.3368 -0.2580
 2478DECAN   C624766   7.110   4.446   4.017 -0.0177 -0.1970  0.5177
 2478DECAN   C724767   7.142   4.593   3.985 -0.2609 -0.2110  0.2130
 2478DECAN   C824768   7.023   4.691   4.000  0.1177  0.2856  0.0086
 2478DECAN   C924769   7.057   4.836   3.960  0.5610  0.1010 -0.2961
 2478DECAN  C1024770   7.182   4.903   4.019  0.3700 -0.1365  0.3849
 2479DECAN   C124771   4.608  10.715  14.858  0.3399  0.2557 -0.7404
 2479DECAN   C224772   4.466  10.682  14.810  0.3190  0.0996 -0.5729
 2479DECAN   C324773   4.418  10.536  14.830 -0.0817  0.3172  0.0925
 2479DECAN   C424774   4.291  10.501  14.750 -0.0608  0.2810  0.0752
 2479DECAN   C524775   4.261  10.350  14.741  0.0223  0.2340  0.5247
 2479DECAN   C624776   4.156  10.315  14.633  0.3086  0.3640  0.2007
 2479DECAN   C724777   4.127  10.167  14.603  0.9265  0.1905  0.4465
 2479DECAN   C824778   4.045  10.088  14.706 -0.1984  0.9816  0.1702
 2479DECAN   C924779   3.976   9.961  14.652 -0.1004  0.9090  0.2136
 2479DECAN  C1024780   3.838   9.928  14.712  0.0991 -0.3935 -0.0021
 2480DECAN   C124781   1.109   4.884  11.319 -0.3224 -0.2741  0.0067
 2480DECAN   C224782   1.111   4.875  11.166 -0.2096  0.2298 -0.0227
 2480DECAN   C324783   1.253   4.855  11.110 -0.3518 -0.0176 -0.3044
 2480DECAN   C424784   1.269   4.847  10.957 -0.1017 -0.3850 -0.2589
 2480DECAN   C524785   1.410   4.806  10.910  0.3911  0.6373  0.2999
 2480DECAN   C624786   1.422   4.800  10.757 -0.1222 -0.1676  0.2905
 2480DECAN   C724787   1.541   4.720  10.699 -0.0925 -0.1412  0.3146
 2480DECAN   C824788   1.506   4.687  10.553  0.8486  0.3825 -0.0370
 2480DECAN   C924789   1.622   4.653  10.457  0.7261  0.2890 -0.1539
 2480DECAN  C1024790   1.589   4.572  10.331  0.3097  0.2484 -0.0195
 2481DECAN   C124791   9.320   4.297  12.869  0.2451 -0.4635  0.5123
 2481DECAN   C224792   9.446   4.345  12.796 -0.0553 -0.0878  0.2356
 2481DECAN   C324793   9.572   4.272  12.847 -0.0476 -0.6117 -0.5190
 2481DECAN   C424794   9.681   4.369  12.898 -0.5551 -0.5424  0.4522
 2481DECAN   C524795   9.817   4.308  12.934 -0.3701 -0.4503 -0.0738
 2481DECAN   C624796   9.880   4.223  12.822  0.5385 -0.2722  0.2914
 2481DECAN   C724797  10.009   4.150  12.863  0.5724 -0.0702  0.5500
 2481DECAN   C824798  10.049   4.027  12.780  0.7145  0.6141 -0.4079
 2481DECAN   C924799  10.180   3.968  12.836  0.1332 -0.0299  0.2941
 2481DECAN  C1024800  10.254   3.865  12.749  0.4107  0.4875 -0.0898
 2482DECAN   C124801   4.599  10.851   7.783 -0.0018 -0.4008 -0.7194
 2482DECAN   C224802   4.563  10.982   7.710  0.0446  0.0977  0.1346
 2482DECAN   C324803   4.478  11.082   7.791  0.7009  0.3884  0.4757
 2482DECAN   C424804   4.403  11.198   7.724 -0.0147 -0.0794  0.4561
 2482DECAN   C524805   4.293  11.137   7.634 -0.0901  0.0205  0.4805
 2482DECAN   C624806   4.196  11.229   7.558  0.1618 -0.3373 -0.2928
 2482DECAN   C724807   4.102   0.074   7.642 -0.0242  0.0043 -0.8556
 2482DECAN   C824808   4.028   0.173   7.550 -0.2749  0.2740 -0.3690
 2482DECAN   C924809   3.923   0.255   7.626 -0.2596  0.1897 -0.2561
 2482DECAN  C1024810   3.839   0.159   7.713  0.7577 -0.6799 -0.2138
 2483DECAN   C124811   6.135   0.283  11.459 -0.4146  0.0696  0.1940
 2483DECAN   C224812   6.163   0.293  11.308 -0.3261  0.6464  0.2482
 2483DECAN   C324813   6.045   0.250  11.219  0.4290  0.3002 -0.6022
 2483DECAN   C424814   6.062   0.306  11.076  0.6350  0.3643 -0.5534
 2483DECAN   C524815   6.181   0.256  10.993  0.3231 -0.6241 -0.4160
 2483DECAN   C624816   6.175   0.343  10.866  0.0298 -0.3874 -0.2391
 2483DECAN   C724817   6.293   0.335  10.768  0.3848 -0.3705  0.1831
 2483DECAN   C824818   6.367   0.464  10.728 -0.2528  0.0375  0.3065
 2483DECAN   C924819   6.512   0.438  10.682 -0.5197 -0.1193 -0.4686
 2483DECAN  C1024820   6.584   0.570  10.648 -0.4642 -0.0039  0.0753
 2484DECAN   C124821  10.807   3.742   9.844 -0.4821 -0.0821 -0.4957
 2484DECAN   C224822  10.675   3.705   9.915 -0.1001 -0.2789  0.1193
 2484DECAN   C324823  10.701   3.614  10.037 -0.2776  0.5848  0.8076
 2484DECAN   C424824  10.691   3.461  10.035  0.0484  0.5719 -0.5964
 2484DECAN   C524825  10.558   3.401   9.985  0.0907 -0.2233  0.2135
 2484DECAN   C624826  10.549   3.248   9.999 -0.2020 -0.2159  0.0999
 2484DECAN   C724827  10.411   3.180   9.983 -0.4949  0.3653  0.1172
 2484DECAN   C824828  10.429   3.027   9.992  0.0402  0.4049 -0.2295
 2484DECAN   C924829  10.523   2.967   9.886  0.0629  0.1292 -0.0534
 2484DECAN  C1024830  10.468   2.945   9.743 -0.1079 -0.1851  0.0594
 2485DECAN   C124831   3.154   6.867  11.037  0.7208  0.2575 -0.0633
 2485DECAN   C224832   3.187   6.990  10.950  0.3716  0.9433  0.7542
 2485DECAN   C324833   3.318   6.980  10.868 -0.0885 -0.3681  0.1423
 2485DECAN   C424834   3.349   7.117  10.804 -0.3112 -0.2004  0.3886
 2485DECAN   C524835   3.469   7.123  10.708 -0.2742 -0.2564  0.4315
 2485DECAN   C624836   3.610   7.127  10.770 -0.2279 -0.2805  0.3268
 2485DECAN   C724837   3.630   7.259  10.847  0.6159  0.1169 -0.5552
 2485DECAN   C824838   3.762   7.280  10.924  0.4616 -0.0535 -0.2442
 2485DECAN   C924839   3.777   7.428  10.966  0.3025  0.0536 -0.5636
 2485DECAN  C1024840   3.903   7.447  11.051 -0.3103  0.5094  0.2605
 2486DECAN   C124841   4.440   1.002   6.177  0.2937 -0.1178  0.4939
 2486DECAN   C224842   4.496   1.141   6.142  0.0426 -0.1010  0.1618
 2486DECAN   C324843   4.482   1.185   5.995  0.3896  0.2705  0.2356
 2486DECAN   C424844   4.556   1.101   5.889  0.5659  0.1533  0.4514
 2486DECAN   C524845   4.555   1.167   5.749  0.4527  0.3229  0.5319
 2486DECAN   C624846   4.636   1.070   5.661  0.8976  0.9424  0.2563
 2486DECAN   C724847   4.659   1.119   5.517  0.1196 -0.4575 -0.3677
 2486DECAN   C824848   4.540   1.171   5.435 -0.0258  0.1076  0.1968
 2486DECAN   C924849   4.418   1.077   5.433  0.1807 -0.1573 -0.0219
 2486DECAN  C1024850   4.305   1.123   5.339  0.0734 -0.2011  0.0841
 2487DECAN   C124851   9.240   5.575  11.211 -0.9886  0.2606 -0.1644
 2487DECAN   C224852   9.192   5.621  11.350 -0.4085  0.3883 -0.0064
 2487DECAN   C324853   9.138   5.506  11.436  0.1448 -0.4356 -0.7468
 2487DECAN   C424854   8.991   5.472  11.408 -0.0949 -0.1487  0.1294
 2487DECAN   C524855   8.890   5.589  11.418  0.1844  0.1207 -0.1906
 2487DECAN   C624856   8.745   5.538  11.412  0.1819  0.1535 -0.4083
 2487DECAN   C724857   8.634   5.631  11.464  0.0463 -0.3621  0.2386
 2487DECAN   C824858   8.589   5.607  11.609 -0.1908 -0.2094  0.1926
 2487DECAN   C924859   8.472   5.689  11.665  0.1759  0.4759 -0.0342
 2487DECAN  C1024860   8.456   5.678  11.818  0.4551 -0.1856 -0.0473
 2488DECAN   C124861   3.660   6.816   4.837 -0.0055 -0.2540  0.1639
 2488DECAN   C224862   3.740   6.696   4.891  0.6698  0.0735 -0.0934
 2488DECAN   C324863   3.757   6.707   5.043  0.0303 -0.2527  0.0058
 2488DECAN   C424864   3.631   6.678   5.127 -0.3456 -0.1056 -0.5029
 2488DECAN   C524865   3.534   6.797   5.120 -0.2118  0.0155 -0.3262
 2488DECAN   C624866   3.419   6.785   5.221 -0.1741 -0.1962 -0.3084
 2488DECAN   C724867   3.291   6.863   5.186  0.1316  0.1946 -0.5563
 2488DECAN   C824868   3.302   7.016   5.192 -0.2765  0.1887  0.4978
 2488DECAN   C924869   3.162   7.061   5.148 -0.4193 -0.3206  0.4281
 2488DECAN  C1024870   3.143   7.214   5.147 -0.1089 -0.2835  0.2573
 2489DECAN   C124871   5.975   7.458   6.918  0.5537 -0.1742 -0.7270
 2489DECAN   C224872   5.935   7.604   6.949 -0.2681 -0.6287  0.4051
 2489DECAN   C324873   5.786   7.629   6.921 -0.1807 -0.6190 -0.0530
 2489DECAN   C424874   5.735   7.741   7.013  0.8863  0.0414 -0.2498
 2489DECAN   C524875   5.761   7.727   7.164  0.0858 -0.3219 -0.1400
 2489DECAN   C624876   5.687   7.828   7.253  0.2565 -0.2874 -0.0369
 2489DECAN   C724877   5.725   7.845   7.402 -0.2003  0.3771  0.0088
 2489DECAN   C824878   5.671   7.744   7.505 -0.1883  0.5349  0.1699
 2489DECAN   C924879   5.704   7.793   7.647 -0.3886  0.3699  0.2743
 2489DECAN  C1024880   5.629   7.708   7.751 -0.5867  0.5146  0.2499
 2490DECAN   C124881   3.122   7.747  10.108  0.3307 -0.1801 -0.4854
 2490DECAN   C224882   3.209   7.797   9.990  0.2275  0.5859 -0.2419
 2490DECAN   C324883   3.195   7.714   9.861 -0.0153  0.2298  0.0086
 2490DECAN   C424884   3.232   7.795   9.735  0.2814 -0.5592 -0.4157
 2490DECAN   C524885   3.218   7.719   9.602 -0.0785 -0.1865 -0.5942
 2490DECAN   C624886   3.247   7.790   9.468  0.4883 -0.0715 -0.4122
 2490DECAN   C724887   3.239   7.712   9.336 -0.5520  0.4414 -0.6616
 2490DECAN   C824888   3.277   7.782   9.204 -0.0382  0.6886 -0.3838
 2490DECAN   C924889   3.249   7.695   9.080  0.1260  0.0185  0.0467
 2490DECAN  C1024890   3.318   7.747   8.953 -0.7562  0.3831 -0.2943
 2491DECAN   C124891   2.336   6.182   8.212 -0.1076 -0.4033 -0.9769
 2491DECAN   C224892   2.363   6.252   8.077 -0.1130  0.6656 -0.4393
 2491DECAN   C324893   2.243   6.301   7.994 -0.6094  0.1255 -0.0531
 2491DECAN   C424894   2.261   6.292   7.841 -0.2096  0.2294 -0.0117
 2491DECAN   C524895   2.158   6.372   7.760 -0.4435  0.1824  0.2382
 2491DECAN   C624896   2.148   6.520   7.803 -0.0223  0.4647 -0.6057
 2491DECAN   C724897   2.079   6.528   7.940  0.9285 -0.1026 -0.0799
 2491DECAN   C824898   2.076   6.667   8.007 -0.5417 -0.0545 -0.2045
 2491DECAN   C924899   2.040   6.659   8.157 -0.5603  0.2475 -0.1920
 2491DECAN  C1024900   2.033   6.797   8.223 -0.3712  0.1467  0.0403
 2492DECAN   C124901   2.856   0.638  10.410  0.9114  0.1162 -0.4184
 2492DECAN   C224902   2.817   0.785  10.431 -0.2507 -0.2449  0.0187
 2492DECAN   C324903   2.915   0.879  10.502  0.2591 -0.4080 -0.4650
 2492DECAN   C424904   2.924   0.857  10.654  0.3336  0.6678 -0.3010
 2492DECAN   C524905   3.028   0.953  10.714 -0.2553  0.3973  1.1909
 2492DECAN   C624906   3.178   0.927  10.692 -0.4748  0.3110 -0.2624
 2492DECAN   C724907   3.257   1.058  10.678  0.5405 -0.2760 -0.0748
 2492DECAN   C824908   3.407   1.051  10.715  0.3919 -0.3666  0.5203
 2492DECAN   C924909   3.476   1.187  10.737  0.1948 -0.2179  0.2179
 2492DECAN  C1024910   3.629   1.174  10.741  0.1933 -0.2716  0.1177
 2493DECAN   C124911   8.613   2.120   9.705 -0.3070  0.1973 -0.3449
 2493DECAN   C224912   8.518   2.042   9.613 -0.0859 -0.1224 -0.3042
 2493DECAN   C324913   8.573   1.917   9.542  0.4536  0.0185 -0.1430
 2493DECAN   C424914   8.655   1.822   9.631 -0.0249 -0.6519 -0.4041
 2493DECAN   C524915   8.802   1.865   9.647 -0.4274  0.5575  0.1693
 2493DECAN   C624916   8.864   1.824   9.782 -0.2947  0.5127  0.0953
 2493DECAN   C724917   9.012   1.865   9.796 -0.0132 -0.2294 -0.6116
 2493DECAN   C824918   9.076   1.830   9.932 -0.5233  0.2865 -0.2321
 2493DECAN   C924919   9.220   1.883   9.942 -0.6154  0.4073  0.5168
 2493DECAN  C1024920   9.294   1.839  10.070  0.5656 -0.3814 -0.4133
 2494DECAN   C124921   9.383  10.385  10.644  0.5506 -0.0891 -0.0864
 2494DECAN   C224922   9.305  10.425  10.517  1.1536  0.5310 -0.2618
 2494DECAN   C324923   9.238  10.562  10.541  0.1607  0.0085 -0.0222
 2494DECAN   C424924   9.187  10.627  10.411  0.0422 -0.8013 -0.3880
 2494DECAN   C524925   9.079  10.564  10.322 -0.6539  0.0373 -0.1507
 2494DECAN   C624926   9.007  10.666  10.232 -0.2378  0.7596  0.3307
 2494DECAN   C724927   8.894  10.604  10.147  0.3896  0.1641 -0.0788
 2494DECAN   C824928   8.784  10.704  10.106  0.1200 -0.1293 -0.0686
 2494DECAN   C924929   8.813  10.777   9.974  0.4881 -0.2356 -0.0476
 2494DECAN  C1024930   8.934  10.872   9.970  0.1797  0.1583 -0.0832
 2495DECAN   C124931   4.922   5.058   4.796  0.3751  0.2132  0.1392
 2495DECAN   C224932   4.964   5.169   4.894  0.6372  0.2164  0.0248
 2495DECAN   C324933   4.840   5.233   4.960  0.4327 -0.3310  0.1757
 2495DECAN   C424934   4.884   5.356   5.041  0.2075 -0.2121  0.1202
 2495DECAN   C524935   4.780   5.410   5.140 -0.0164 -0.2522 -0.0915
 2495DECAN   C624936   4.823   5.544   5.202 -0.4101 -0.1471 -0.0400
 2495DECAN   C724937   4.728   5.600   5.309 -0.0863  0.0428  0.1516
 2495DECAN   C824938   4.692   5.499   5.420  0.3328  0.0824  0.3235
 2495DECAN   C924939   4.806   5.474   5.521  0.4597  0.0004  0.1604
 2495DECAN  C1024940   4.758   5.373   5.627  0.7794 -0.1012  0.2092
 2496DECAN   C124941   2.283   4.732   9.151 -0.2435  0.2878 -0.1749
 2496DECAN   C224942   2.374   4.619   9.100 -0.3050  0.0453  0.2499
 2496DECAN   C324943   2.495   4.581   9.188 -0.3063 -0.3729  0.0728
 2496DECAN   C424944   2.574   4.471   9.114  0.4856  0.1568  0.1139
 2496DECAN   C524945   2.697   4.414   9.186  0.9038  0.1702 -0.5793
 2496DECAN   C624946   2.688   4.262   9.210 -0.6901  0.3053 -0.2203
 2496DECAN   C724947   2.702   4.186   9.076  0.1869  0.1300 -0.0370
 2496DECAN   C824948   2.682   4.036   9.106  0.3906  0.1641  0.2754
 2496DECAN   C924949   2.731   3.955   8.985  0.1497 -0.1749  0.4015
 2496DECAN  C1024950   2.670   3.815   8.967 -0.4893  0.1830 -0.2664
 2497DECAN   C124951   3.007   0.988  14.341  0.1752 -0.2139 -0.1649
 2497DECAN   C224952   3.085   0.889  14.430  0.5425 -0.0695 -0.3214
 2497DECAN   C324953   3.177   0.799  14.346  0.8143  0.7330 -0.9019
 2497DECAN   C424954   3.132   0.666  14.283 -0.0162  0.4951  0.1550
 2497DECAN   C524955   3.004   0.664  14.196  0.0741  0.3578  0.0233
 2497DECAN   C624956   2.870   0.685  14.270  0.1512 -0.0739  0.2906
 2497DECAN   C724957   2.751   0.658  14.176  0.3532  0.5062 -0.1417
 2497DECAN   C824958   2.752   0.765  14.066 -0.2514 -0.0272 -0.6820
 2497DECAN   C924959   2.873   0.764  13.970  0.3395  0.2230  0.0472
 2497DECAN  C1024960   2.873   0.869  13.858 -0.2281  0.4373  0.2427
 2498DECAN   C124961   2.323   1.463  12.338  0.0608  0.2718 -0.1946
 2498DECAN   C224962   2.178   1.481  12.290 -0.0981 -0.4277  0.0093
 2498DECAN   C324963   2.119   1.616  12.335  0.6371  0.1163 -0.6243
 2498DECAN   C424964   1.997   1.682  12.266  0.3173  0.1481 -0.0354
 2498DECAN   C524965   1.935   1.799  12.345 -0.4622  0.3288 -0.9012
 2498DECAN   C624966   2.048   1.895  12.387 -0.0888 -0.3491 -0.3363
 2498DECAN   C724967   2.010   2.004  12.489  0.2694  0.0164 -0.5936
 2498DECAN   C824968   2.134   2.076  12.545 -0.0807 -0.1378  0.3972
 2498DECAN   C924969   2.216   2.002  12.651  0.2736  0.3126  0.4420
 2498DECAN  C1024970   2.313   1.899  12.589  0.4404  0.2110  0.8670
 2499DECAN   C124971   6.931   1.751   6.366 -0.2751 -0.3465 -0.2379
 2499DECAN   C224972   6.953   1.640   6.471  0.3065 -0.1804 -0.1846
 2499DECAN   C324973   7.098   1.606   6.513  0.2523 -0.2646 -0.0636
 2499DECAN   C424974   7.181   1.708   6.592  0.1425 -0.0011 -0.2825
 2499DECAN   C524975   7.318   1.668   6.650  0.0411  0.0606  0.0012
 2499DECAN   C624976   7.403   1.781   6.713 -0.1626  0.1531  0.1130
 2499DECAN   C724977   7.490   1.729   6.830 -0.8336  0.1062  0.5933
 2499DECAN   C824978   7.600   1.820   6.887 -0.5739 -0.0963  0.4177
 2499DECAN   C924979   7.541   1.938   6.967  0.1380  0.2738  0.4001
 2499DECAN  C1024980   7.647   2.035   7.023 -0.2151  0.7421  0.2556
 2500DECAN   C124981   4.392   4.026  13.462  0.0122  0.8475 -0.3227
 2500DECAN   C224982   4.494   4.136  13.424  0.2911  0.7061  0.0160
 2500DECAN   C324983   4.617   4.089  13.344  0.1701  0.5384 -0.0740
 2500DECAN   C424984   4.714   4.196  13.290  0.2269  0.4199 -0.2037
 2500DECAN   C524985   4.793   4.275  13.396  0.1060 -0.0840  0.2657
 2500DECAN   C624986   4.894   4.382  13.352 -0.6348  0.4578 -0.1292
 2500DECAN   C724987   4.958   4.460  13.469 -0.0977 -0.3623  0.1340
 2500DECAN   C824988   4.856   4.557  13.533  0.8787  0.2822  0.7489
 2500DECAN   C924989   4.907   4.662  13.633  0.7858  0.7226  0.3383
 2500DECAN  C1024990   4.796   4.757  13.683 -0.8503 -0.4972 -0.8478
 2501DECAN   C124991   2.256   1.378   9.327 -0.0946  0.5026 -0.4869
 2501DECAN   C224992   2.351   1.425   9.439  0.4214 -0.8365 -0.3457
 2501DECAN   C324993   2.433   1.545   9.388 -0.1857 -0.0506  0.4935
 2501DECAN   C424994   2.547   1.596   9.478 -0.3059  0.8277  0.1606
 2501DECAN   C524995   2.645   1.699   9.419  0.0482  0.0799 -0.5742
 2501DECAN   C624996   2.734   1.631   9.313  0.2989 -0.5291  0.0217
 2501DECAN   C724997   2.847   1.713   9.249  0.0074 -0.0736  0.0903
 2501DECAN   C824998   2.794   1.801   9.134 -0.2482 -0.0715  0.2082
 2501DECAN   C924999   2.911   1.883   9.076 -0.2794 -0.6189 -0.6381
 2501DECAN  C1025000   2.864   1.973   8.960  0.8454  0.3469 -0.3652
 2502DECAN   C125001   3.202   3.097   5.602  0.7849  0.0467  0.3284
 2502DECAN   C225002   3.235   3.223   5.520  0.3862 -0.1197 -0.0910
 2502DECAN   C325003   3.243   3.180   5.372 -0.0946 -0.5387  0.0002
 2502DECAN   C425004   3.266   3.303   5.282  0.1825 -0.5132  0.1041
 2502DECAN   C525005   3.280   3.265   5.133  0.2702 -0.0508 -0.0065
 2502DECAN   C625006   3.307   3.374   5.028  0.6024  0.3682  0.5056
 2502DECAN   C725007   3.191   3.475   5.027  0.5200  0.2739  0.1464
 2502DECAN   C825008   3.052   3.408   5.029  0.6737 -0.0521 -0.0569
 2502DECAN   C925009   2.938   3.496   4.975  0.7056 -0.0394 -0.1035
 2502DECAN  C1025010   2.945   3.523   4.823 -0.0046 -0.7786 -0.2738
 2503DECAN   C125011   7.662   1.926   9.814  0.4043 -0.7325  0.2092
 2503DECAN   C225012   7.611   2.026   9.919 -0.3041 -0.2477 -0.5936
 2503DECAN   C325013   7.640   1.965  10.057 -0.9893 -0.0930 -0.3747
 2503DECAN   C425014   7.545   1.851  10.098 -0.9300 -0.0664 -0.1621
 2503DECAN   C525015   7.556   1.804  10.244 -0.4090  0.2118 -0.1100
 2503DECAN   C625016   7.464   1.684  10.272  1.0032 -0.8486  0.1054
 2503DECAN   C725017   7.447   1.656  10.422  0.1027 -0.1746  0.1421
 2503DECAN   C825018   7.363   1.529  10.448 -0.1070 -0.0428  0.1113
 2503DECAN   C925019   7.413   1.392  10.398  0.4217 -0.0045  0.5299
 2503DECAN  C1025020   7.336   1.264  10.434  0.4439 -0.1563  0.0339
 2504DECAN   C125021   5.676  11.086   4.863 -0.0304 -0.3084  0.0426
 2504DECAN   C225022   5.654  11.227   4.806 -0.3262 -0.4640 -0.2315
 2504DECAN   C325023   5.621  11.232   4.656 -0.1419 -0.3500 -0.2689
 2504DECAN   C425024   5.485  11.181   4.604 -0.4335  0.0785  0.0637
 2504DECAN   C525025   5.454  11.197   4.454  0.2515 -0.5635 -0.1507
 2504DECAN   C625026   5.311  11.152   4.417  0.1965 -0.4448 -0.0846
 2504DECAN   C725027   5.279  11.202   4.274 -0.4725 -0.0509  0.2008
 2504DECAN   C825028   5.154  11.136   4.213 -0.2205  0.0272 -0.4024
 2504DECAN   C925029   5.152  11.143   4.059  0.3972 -0.0954 -0.4204
 2504DECAN  C1025030   5.039  11.070   3.985 -0.3043  0.5443 -0.0014
 2505DECAN   C125031   5.313   0.062   7.465 -0.4777 -0.0573 -0.2753
 2505DECAN   C225032   5.177   0.133   7.477 -0.5488 -0.1427 -0.5637
 2505DECAN   C325033   5.161   0.247   7.375 -0.1341  0.5133  0.0897
 2505DECAN   C425034   5.022   0.313   7.392 -0.4271  0.0538 -0.4544
 2505DECAN   C525035   5.009   0.432   7.295  0.2047  0.5130  0.0121
 2505DECAN   C625036   4.880   0.514   7.293  0.0279  0.2349 -0.0490
 2505DECAN   C725037   4.865   0.585   7.157 -0.5489  0.1889 -0.0143
 2505DECAN   C825038   4.719   0.626   7.133 -0.7003 -0.1994  0.2257
 2505DECAN   C925039   4.673   0.663   6.990 -0.0140  0.0448  0.0647
 2505DECAN  C1025040   4.547   0.751   6.996 -0.2844 -0.2929 -0.5540
 2506DECAN   C125041   4.888   0.394   4.525  0.0048 -0.2212 -0.5992
 2506DECAN   C225042   4.968   0.296   4.614 -0.5013 -0.0515  0.0476
 2506DECAN   C325043   5.119   0.303   4.589 -0.4645 -0.2517  0.2137
 2506DECAN   C425044   5.205   0.419   4.642 -0.0762 -0.4762  0.0819
 2506DECAN   C525045   5.354   0.389   4.615 -0.0107 -0.0237 -0.0683
 2506DECAN   C625046   5.436   0.495   4.691 -0.3134  0.1034  0.0853
 2506DECAN   C725047   5.574   0.494   4.622  0.0150 -0.3743  0.7359
 2506DECAN   C825048   5.665   0.590   4.702 -0.0003  0.4750 -0.2468
 2506DECAN   C925049   5.804   0.588   4.636  0.2906  0.0145  0.3800
 2506DECAN  C1025050   5.875   0.452   4.646 -0.3108 -0.3229  0.1207
 2507DECAN   C125051   9.096   7.885   5.156  0.0203  0.6565 -0.5279
 2507DECAN   C225052   8.949   7.928   5.153 -0.1264  0.1869 -0.1796
 2507DECAN   C325053   8.869   7.796   5.155 -0.0203  0.1254  0.2881
 2507DECAN   C425054   8.889   7.721   5.022 -0.4083 -0.2896  0.4622
 2507DECAN   C525055   8.811   7.589   5.018 -0.4611 -0.2400 -0.2727
 2507DECAN   C625056   8.664   7.629   5.042 -0.3020  0.2314 -0.0840
 2507DECAN   C725057   8.561   7.515   5.058 -0.4486  0.2721 -0.7141
 2507DECAN   C825058   8.418   7.568   5.076 -0.4471  0.0319  0.0234
 2507DECAN   C925059   8.318   7.459   5.119 -0.4639  0.1871  0.3824
 2507DECAN  C1025060   8.285   7.359   5.007  0.6083  0.4925 -0.2239
 2508DECAN   C125061   5.811   2.748   4.426  0.0858 -0.0532 -0.3978
 2508DECAN   C225062   5.845   2.893   4.465  0.3665 -0.0579 -0.6152
 2508DECAN   C325063   5.735   3.002   4.470  0.3736 -0.0920  0.6626
 2508DECAN   C425064   5.606   2.976   4.550  0.0122 -0.1211  0.0735
 2508DECAN   C525065   5.503   3.086   4.517 -0.0640 -0.2534 -0.1325
 2508DECAN   C625066   5.515   3.219   4.595  0.0705 -0.4407  0.1693
 2508DECAN   C725067   5.454   3.338   4.519  0.7997  0.0595  0.3601
 2508DECAN   C825068   5.465   3.473   4.593 -0.7234  0.2897  0.1933
 2508DECAN   C925069   5.431   3.592   4.501 -0.5031  0.3649  0.2082
 2508DECAN  C1025070   5.551   3.637   4.417 -0.0344 -0.1114  0.6185
 2509DECAN   C125071   9.359   9.147  14.227  0.0264  0.1468 -1.1174
 2509DECAN   C225072   9.505   9.163  14.275 -0.1794 -0.3121 -0.3189
 2509DECAN   C325073   9.558   9.041  14.352  0.3777  0.7376  0.9938
 2509DECAN   C425074   9.711   9.030  14.335  0.2387  0.2067  0.0616
 2509DECAN   C525075   9.768   8.887  14.352 -0.4691 -0.1041 -0.1350
 2509DECAN   C625076   9.915   8.876  14.396 -0.6968 -0.9264  0.4352
 2509DECAN   C725077   9.998   8.750  14.364  0.4034 -0.2298  0.5099
 2509DECAN   C825078  10.120   8.760  14.458  0.5190 -0.1748  0.3548
 2509DECAN   C925079  10.094   8.738  14.608 -0.4321  0.3492  0.2749
 2509DECAN  C1025080  10.106   8.589  14.646 -0.1263  0.2483 -0.2016
 2510DECAN   C125081  10.266   8.856  10.624  0.6924  0.3256  0.3067
 2510DECAN   C225082  10.170   8.952  10.698 -0.1235 -0.1689 -0.1025
 2510DECAN   C325083  10.022   8.910  10.702  0.1743 -1.2566 -0.2226
 2510DECAN   C425084   9.969   8.917  10.557  0.0345 -0.1388 -0.1202
 2510DECAN   C525085   9.831   8.848  10.548 -0.1206  0.1424  0.0508
 2510DECAN   C625086   9.823   8.698  10.581 -0.4452  0.1650  0.0741
 2510DECAN   C725087   9.892   8.619  10.468 -0.2074  0.3118  0.1178
 2510DECAN   C825088   9.936   8.478  10.511  0.0368  0.2963 -0.1875
 2510DECAN   C925089  10.024   8.410  10.404 -0.1340 -0.3814  0.0944
 2510DECAN  C1025090  10.067   8.276  10.464  0.6963 -0.0747  0.1955
 2511DECAN   C125091   2.441  11.070   4.725 -0.0274 -0.1687  0.2368
 2511DECAN   C225092   2.299  11.028   4.684 -0.0792 -0.2040  0.4541
 2511DECAN   C325093   2.298  10.912   4.584 -0.2685  0.1703  0.0162
 2511DECAN   C425094   2.394  10.921   4.463 -0.0990  0.0195  0.1389
 2511DECAN   C525095   2.428  10.791   4.386 -0.6558 -0.4832  0.7284
 2511DECAN   C625096   2.503  10.684   4.467 -0.6315 -0.8097  0.2739
 2511DECAN   C725097   2.580  10.587   4.375 -1.2756 -0.7651 -0.3195
 2511DECAN   C825098   2.645  10.472   4.454  0.2058  0.3565  0.1397
 2511DECAN   C925099   2.734  10.386   4.363  0.3388  0.7237 -0.0768
 2511DECAN  C1025100   2.803  10.278   4.448  0.0435  0.2023 -0.4927
 2512DECAN   C125101   7.941   7.077  14.938  0.1441  0.4362  0.0181
 2512DECAN   C225102   8.071   7.057  14.857  0.2320  0.2175  0.2115
 2512DECAN   C325103   8.062   6.972  14.729 -0.0249  0.4560  0.0680
 2512DECAN   C425104   8.193   6.920  14.666 -0.2264 -0.0498  0.0549
 2512DECAN   C525105   8.160   6.852  14.532 -0.6809 -0.7278  0.5074
 2512DECAN   C625106   8.141   6.951  14.415  0.5727 -0.7544  0.2635
 2512DECAN   C725107   8.099   6.870  14.291  0.6027  0.1865 -0.3680
 2512DECAN   C825108   7.949   6.836  14.301  0.6278 -0.0217 -0.6780
 2512DECAN   C925109   7.874   6.813  14.169 -0.4553  0.4445 -0.1565
 2512DECAN  C1025110   7.721   6.828  14.178 -0.4954 -0.0183 -0.0052
 2513DECAN   C125111   8.601   2.916   5.139 -0.0891 -0.5450 -0.8434
 2513DECAN   C225112   8.679   3.031   5.072 -0.0648 -0.0373  0.0365
 2513DECAN   C325113   8.611   3.090   4.947  0.1482  0.0335 -0.0466
 2513DECAN   C425114   8.703   3.183   4.866  0.6433 -0.0776  0.3896
 2513DECAN   C525115   8.655   3.245   4.734  0.2213 -0.2136  0.4767
 2513DECAN   C625116   8.779   3.305   4.665  0.2778 -0.4350  0.3869
 2513DECAN   C725117   8.752   3.393   4.541 -0.2496 -0.0234  0.7924
 2513DECAN   C825118   8.883   3.416   4.464 -0.2297 -0.0654  0.8135
 2513DECAN   C925119   8.998   3.478   4.547  0.2099  0.1507  0.0478
 2513DECAN  C1025120   9.106   3.375   4.587  0.1124  0.1522  0.3107
 2514DECAN   C125121   2.016   5.848   6.842  0.1619  0.3710 -0.1487
 2514DECAN   C225122   1.884   5.817   6.914  0.2065  0.7306  0.0896
 2514DECAN   C325123   1.781   5.929   6.891 -0.5354  0.0157 -0.1328
 2514DECAN   C425124   1.637   5.877   6.906 -0.2470 -0.7968 -0.1272
 2514DECAN   C525125   1.600   5.832   7.049  0.4359  0.7158  0.5455
 2514DECAN   C625126   1.587   5.948   7.150 -0.9440  0.7085  0.3979
 2514DECAN   C725127   1.580   5.914   7.300  0.5911  0.0865  0.3429
 2514DECAN   C825128   1.535   6.033   7.387 -0.2476 -0.3864  0.5630
 2514DECAN   C925129   1.388   6.077   7.374 -0.0029  0.3316  0.1427
 2514DECAN  C1025130   1.364   6.224   7.411  0.2309  0.1282  1.1286
 2515DECAN   C125131   7.044   9.667  12.092 -0.3375 -0.2407  0.0376
 2515DECAN   C225132   7.024   9.817  12.123  0.0932 -0.1510 -0.1100
 2515DECAN   C325133   7.088   9.871  12.252 -0.3406  0.1975 -0.0377
 2515DECAN   C425134   7.037   9.805  12.382  0.6868  0.1711  0.3608
 2515DECAN   C525135   7.088   9.880  12.506 -0.2182  0.5172  0.5351
 2515DECAN   C625136   7.030   9.803  12.627  0.3412 -0.8330 -0.0324
 2515DECAN   C725137   7.024   9.892  12.752  0.1559 -0.0641 -0.5747
 2515DECAN   C825138   7.146   9.923  12.842 -0.3490  0.1324  0.0526
 2515DECAN   C925139   7.234  10.043  12.803  0.2911 -0.4771 -0.4104
 2515DECAN  C1025140   7.357  10.057  12.895 -0.0567 -0.5423  0.0688
 2516DECAN   C125141  10.073   3.790   6.293  0.3599 -0.2229  0.4869
 2516DECAN   C225142   9.950   3.830   6.209  0.5013 -0.3222  0.2317
 2516DECAN   C325143   9.850   3.718   6.179 -0.3980  0.4830  0.1817
 2516DECAN   C425144   9.758   3.728   6.055  0.3196  0.2624 -0.3779
 2516DECAN   C525145   9.658   3.845   6.062 -0.2877 -0.2742  0.0970
 2516DECAN   C625146   9.545   3.853   5.958  0.1103 -0.2053 -0.3354
 2516DECAN   C725147   9.433   3.956   5.980  0.5017  0.2405 -0.4037
 2516DECAN   C825148   9.359   4.002   5.853 -0.0409 -0.2585 -0.2751
 2516DECAN   C925149   9.414   4.133   5.794 -0.0035 -0.2274 -0.1719
 2516DECAN  C1025150   9.332   4.181   5.673 -0.1102 -0.7121 -0.2946
 2517DECAN   C125151   2.977   6.572  13.757  0.1560 -0.4048  0.0895
 2517DECAN   C225152   3.100   6.551  13.847 -0.1099 -0.5687  0.4175
 2517DECAN   C325153   3.213   6.654  13.828 -0.7002 -0.0452 -0.3246
 2517DECAN   C425154   3.349   6.629  13.896 -0.6835  0.1314 -0.2932
 2517DECAN   C525155   3.401   6.488  13.861 -0.7830 -0.0697  0.3507
 2517DECAN   C625156   3.542   6.472  13.921 -0.5269 -0.0825 -0.2485
 2517DECAN   C725157   3.529   6.451  14.073  0.0314  0.1298 -0.1719
 2517DECAN   C825158   3.648   6.511  14.151 -0.0722 -0.0600  0.1359
 2517DECAN   C925159   3.644   6.665  14.140  0.2142 -0.0293  0.4441
 2517DECAN  C1025160   3.764   6.728  14.211  0.3113 -0.4894  0.6913
 2518DECAN   C125161   4.301   7.116   9.486 -0.5285  0.1053 -0.2988
 2518DECAN   C225162   4.293   6.990   9.575  0.2368 -0.1822 -0.6300
 2518DECAN   C325163   4.434   6.930   9.588  0.2399 -0.1960 -0.7292
 2518DECAN   C425164   4.451   6.843   9.714  0.2634  0.4014 -0.3151
 2518DECAN   C525165   4.586   6.773   9.733 -0.1981 -0.5925 -0.6588
 2518DECAN   C625166   4.705   6.860   9.778 -0.2233 -0.3725 -1.0183
 2518DECAN   C725167   4.838   6.784   9.796  0.1962  0.5516 -0.1164
 2518DECAN   C825168   4.956   6.864   9.855 -0.4567  1.4379  0.0099
 2518DECAN   C925169   4.911   6.958   9.969  0.2724  0.7831  0.8484
 2518DECAN  C1025170   4.861   6.889  10.098  0.1953 -0.6871  0.0588
 2519DECAN   C125171   1.024   3.959  11.802  0.4423 -0.8912 -0.0965
 2519DECAN   C225172   1.105   4.056  11.714 -0.3395 -0.3205 -0.2008
 2519DECAN   C325173   1.200   3.976  11.623 -0.1288 -0.2408 -0.0528
 2519DECAN   C425174   1.128   3.921  11.498  0.8500  0.4453 -0.9309
 2519DECAN   C525175   1.075   4.044  11.421  0.1647  0.5781 -0.2574
 2519DECAN   C625176   0.998   4.014  11.291  0.1055  0.2574 -0.1490
 2519DECAN   C725177   0.967   4.128  11.193  0.3221  0.2970 -0.1734
 2519DECAN   C825178   0.883   4.081  11.073 -0.6135 -0.4524  0.7492
 2519DECAN   C925179   0.785   4.192  11.031 -0.2164 -0.4366 -0.1636
 2519DECAN  C1025180   0.709   4.150  10.904 -0.4518 -0.3951 -0.0362
 2520DECAN   C125181   5.357   4.656   8.585  0.3611 -0.0813  0.0434
 2520DECAN   C225182   5.341   4.796   8.524 -0.1271 -0.1761 -0.0466
 2520DECAN   C325183   5.267   4.900   8.610  0.3864  0.5553 -0.4819
 2520DECAN   C425184   5.345   4.938   8.738  0.0177 -0.3515  0.0160
 2520DECAN   C525185   5.290   5.040   8.838 -0.2725 -0.2101 -0.2842
 2520DECAN   C625186   5.205   4.988   8.956  0.2710 -0.0492  0.1850
 2520DECAN   C725187   5.160   5.090   9.062  0.3413 -0.0110  0.1778
 2520DECAN   C825188   5.055   5.027   9.155 -0.3805  0.4560 -0.3114
 2520DECAN   C925189   4.981   5.121   9.251 -0.0829  0.3703  0.0066
 2520DECAN  C1025190   4.905   5.036   9.354  0.5765 -0.1833  0.0395
 2521DECAN   C125191   5.096   1.530  13.378 -0.3369  0.2142  0.0315
 2521DECAN   C225192   5.153   1.585  13.511  0.3956 -0.3210 -0.0532
 2521DECAN   C325193   5.071   1.534  13.631 -0.2114  0.0997 -0.2825
 2521DECAN   C425194   5.128   1.609  13.753 -0.0146 -0.3555 -0.0906
 2521DECAN   C525195   5.029   1.606  13.871  0.0756 -0.1992 -0.0127
 2521DECAN   C625196   5.093   1.615  14.011  0.2378 -0.8414 -0.0395
 2521DECAN   C725197   4.979   1.610  14.114  0.0156 -0.2036 -0.2512
 2521DECAN   C825198   5.035   1.594  14.257 -0.1906  0.4495 -0.0930
 2521DECAN   C925199   4.922   1.562  14.357 -0.0387 -0.4788 -0.2144
 2521DECAN  C1025200   4.955   1.588  14.505 -0.1958 -1.1860 -0.0483
 2522DECAN   C125201   8.253   0.829  11.554  0.3351 -0.1238 -0.7327
 2522DECAN   C225202   8.223   0.866  11.408 -0.7047  0.2495 -0.4386
 2522DECAN   C325203   8.212   1.019  11.394  0.0148  0.3375 -0.0992
 2522DECAN   C425204   8.349   1.089  11.402  0.1442  0.1079 -0.2801
 2522DECAN   C525205   8.321   1.234  11.359 -0.1615  0.2712  0.4493
 2522DECAN   C625206   8.232   1.240  11.233  0.1786  0.0206  0.1959
 2522DECAN   C725207   8.186   1.383  11.201 -0.0334  0.1825  1.1785
 2522DECAN   C825208   8.303   1.483  11.219  0.5501 -0.2199 -0.2122
 2522DECAN   C925209   8.280   1.621  11.155  0.2559 -0.1028  0.1389
 2522DECAN  C1025210   8.368   1.728  11.222  0.0041  0.0018  0.3037
 2523DECAN   C125211   7.329   5.569  15.080  0.6180  0.9213 -0.2635
 2523DECAN   C225212   7.351   5.467  14.967  0.8319  0.7071 -0.0309
 2523DECAN   C325213   7.366   5.325  15.025 -0.7080  0.4268 -0.2766
 2523DECAN   C425214   7.458   5.233  14.943 -0.8130  0.2756 -0.2252
 2523DECAN   C525215   7.440   5.080  14.941 -0.4276  0.2291 -0.3945
 2523DECAN   C625216   7.520   5.011  14.829  0.1971  0.2973  0.0054
 2523DECAN   C725217   7.670   4.993  14.859  0.0911 -0.0859  0.3150
 2523DECAN   C825218   7.752   4.917  14.752  0.1673  0.1856  0.1793
 2523DECAN   C925219   7.891   4.868  14.797 -0.0623 -0.0642  0.6328
 2523DECAN  C1025220   7.991   4.839  14.683 -0.0800  0.1258  0.5683
 2524DECAN   C125221   6.193   7.351  11.194 -0.9921 -0.3841  0.5949
 2524DECAN   C225222   6.252   7.211  11.217  0.3056 -0.0168 -0.3975
 2524DECAN   C325223   6.187   7.080  11.169 -0.1971  0.1499 -0.1826
 2524DECAN   C425224   6.043   7.050  11.214  0.0252 -0.3602  0.1967
 2524DECAN   C525225   6.015   6.900  11.239 -0.5654 -0.3156 -0.1730
 2524DECAN   C625226   5.988   6.808  11.119 -0.5331  0.0864 -0.4935
 2524DECAN   C725227   6.098   6.798  11.012  0.5173  0.0656  0.5719
 2524DECAN   C825228   6.083   6.680  10.914 -0.8770 -0.0236  0.8693
 2524DECAN   C925229   6.111   6.535  10.959 -0.1904 -0.2454 -0.2484
 2524DECAN  C1025230   6.142   6.426  10.854 -0.3088 -0.5809  0.0634
 2525DECAN   C125231   4.327   3.833   4.441 -0.0024 -0.1704  0.4124
 2525DECAN   C225232   4.410   3.958   4.476  0.2624 -0.2409  0.0348
 2525DECAN   C325233   4.563   3.943   4.494  0.2763  0.2664  0.3586
 2525DECAN   C425234   4.614   4.078   4.546  0.0585  0.2586  0.5957
 2525DECAN   C525235   4.638   4.180   4.433 -0.8642 -0.3072 -0.1253
 2525DECAN   C625236   4.519   4.230   4.349 -0.5222 -0.0348 -0.4539
 2525DECAN   C725237   4.561   4.335   4.245 -0.4045  0.0852 -0.2867
 2525DECAN   C825238   4.630   4.272   4.122 -0.0311  0.0292 -0.0488
 2525DECAN   C925239   4.636   4.363   3.998  0.5021  0.0638  0.0023
 2525DECAN  C1025240   4.681   4.290   3.870 -0.2599 -0.0672 -0.1924
 2526DECAN   C125241   4.725  10.593   5.569  0.3192 -0.1331 -0.4029
 2526DECAN   C225242   4.572  10.577   5.556  0.3621 -0.5006 -0.4653
 2526DECAN   C325243   4.501  10.706   5.512 -0.0171 -0.2507  0.8363
 2526DECAN   C425244   4.349  10.689   5.491  0.1358  0.0103 -0.5922
 2526DECAN   C525245   4.270  10.813   5.445  0.1351  0.2476  0.0345
 2526DECAN   C625246   4.121  10.775   5.433  0.2593 -0.2909  0.1569
 2526DECAN   C725247   4.026  10.891   5.397  0.0867 -0.6436 -0.5415
 2526DECAN   C825248   4.052  10.949   5.257 -0.3832  0.3269 -0.2333
 2526DECAN   C925249   3.944  11.043   5.201 -0.4681  0.2511 -0.1969
 2526DECAN  C1025250   3.987  11.105   5.066  0.7920  0.1870  0.1657
 2527DECAN   C125251   4.608   7.912  11.730  0.2047 -0.3986 -0.3055
 2527DECAN   C225252   4.610   7.780  11.809  0.1705 -0.1120  0.1801
 2527DECAN   C325253   4.743   7.749  11.880  0.5993  0.2104 -0.4672
 2527DECAN   C425254   4.748   7.647  11.995 -0.4423  0.3849 -0.2539
 2527DECAN   C525255   4.719   7.504  11.946  0.1533 -0.0597  0.6653
 2527DECAN   C625256   4.717   7.420  12.075  1.1017 -0.4507  0.4391
 2527DECAN   C725257   4.703   7.271  12.037 -0.4960 -0.1996 -0.0503
 2527DECAN   C825258   4.673   7.186  12.161  0.2340 -0.3779  0.0086
 2527DECAN   C925259   4.650   7.039  12.121  0.1137 -0.3618  0.0172
 2527DECAN  C1025260   4.517   6.985  12.177  0.1667 -0.1873  0.3122
 2528DECAN   C125261   9.468   3.800  12.822  0.8382 -0.1863 -0.3189
 2528DECAN   C225262   9.462   3.905  12.935 -0.0507 -0.1521 -0.3929
 2528DECAN   C325263   9.588   3.885  13.020 -0.3007 -0.2317 -0.0371
 2528DECAN   C425264   9.596   3.961  13.154 -0.0041 -0.6930  0.2111
 2528DECAN   C525265   9.669   3.892  13.271  0.3152 -0.0637  0.3902
 2528DECAN   C625266   9.821   3.874  13.253  0.2831 -0.4649  0.4855
 2528DECAN   C725267   9.862   3.783  13.136  0.5880  0.1682  0.0906
 2528DECAN   C825268  10.012   3.747  13.139  0.5210 -0.1449 -0.1934
 2528DECAN   C925269  10.043   3.628  13.047  0.1016 -0.6887  0.3595
 2528DECAN  C1025270  10.193   3.600  13.026  0.2128  0.1046  0.0529
 2529DECAN   C125271  10.486   0.940  10.847  0.1240  0.1095 -0.6909
 2529DECAN   C225272  10.593   1.015  10.928  0.1181 -0.7544  0.1318
 2529DECAN   C325273  10.578   0.998  11.080 -0.2041 -0.6565  0.1103
 2529DECAN   C425274  10.692   1.080  11.145 -0.4170 -0.3083  0.0504
 2529DECAN   C525275  10.698   1.072  11.298  0.0965  0.2033  0.0570
 2529DECAN   C625276  10.684   0.928  11.351 -0.2205  0.0159 -0.5358
 2529DECAN   C725277  10.543   0.867  11.343 -0.4190  0.2139  1.2018
 2529DECAN   C825278  10.547   0.717  11.376  0.3147  0.0404  0.3462
 2529DECAN   C925279  10.628   0.625  11.282  0.8613  0.7182  0.1482
 2529DECAN  C1025280  10.656   0.493  11.355 -0.4460  0.4934  0.2755
 2530DECAN   C125281   3.392  10.479   3.893  0.1599 -0.3824  0.0905
 2530DECAN   C225282   3.384  10.329   3.857 -0.0676 -0.3802  0.1299
 2530DECAN   C325283   3.261  10.255   3.912  0.0178 -0.4507  0.2250
 2530DECAN   C425284   3.136  10.344   3.897  0.1020 -0.2647  0.6261
 2530DECAN   C525285   3.148  10.487   3.955  0.7940 -0.0314 -0.0660
 2530DECAN   C625286   3.010  10.554   3.968  0.8249  0.0402 -0.1113
 2530DECAN   C725287   3.022  10.674   4.063  0.2484 -0.0436  0.0738
 2530DECAN   C825288   3.046  10.636   4.210 -0.2577 -0.1668  0.1267
 2530DECAN   C925289   3.195  10.598   4.224 -0.3216 -0.5006 -0.1112
 2530DECAN  C1025290   3.206  10.515   4.353  0.1691 -0.5555 -0.1873
 2531DECAN   C125291   6.817   5.953   5.328  0.1664  0.2823 -0.3746
 2531DECAN   C225292   6.838   6.065   5.224  0.2191  0.1188 -0.5413
 2531DECAN   C325293   6.973   6.078   5.151  0.6177  0.2351  0.2034
 2531DECAN   C425294   6.999   5.955   5.063  0.3388  0.0006  0.4474
 2531DECAN   C525295   7.134   5.939   4.992  0.1018  0.0343 -0.0186
 2531DECAN   C625296   7.125   5.813   4.904  0.2759  0.1639 -0.2241
 2531DECAN   C725297   7.065   5.830   4.764 -0.5975 -0.6774  0.0391
 2531DECAN   C825298   7.055   5.698   4.686 -0.0339 -0.3096 -0.6715
 2531DECAN   C925299   7.000   5.690   4.542 -0.1488 -0.0228 -0.6426
 2531DECAN  C1025300   6.993   5.548   4.484  0.5792 -0.5044  0.4155
 2532DECAN   C125301   3.571   7.226   6.399  0.2548  0.1346 -0.0243
 2532DECAN   C225302   3.482   7.100   6.397  0.0488  0.2785  0.0540
 2532DECAN   C325303   3.417   7.076   6.535  0.6524 -0.3638  0.2290
 2532DECAN   C425304   3.373   6.930   6.554 -0.3918 -0.0018  0.6706
 2532DECAN   C525305   3.280   6.897   6.672  0.2117 -0.0253  1.1453
 2532DECAN   C625306   3.238   6.749   6.663  0.3694  0.0020 -0.3732
 2532DECAN   C725307   3.148   6.701   6.548 -0.1594 -0.0812  0.0689
 2532DECAN   C825308   3.108   6.556   6.583  0.2602 -0.2214 -0.0233
 2532DECAN   C925309   3.026   6.486   6.473 -0.3625  0.6835 -0.1450
 2532DECAN  C1025310   2.979   6.341   6.497  1.0370  0.3195  0.4851
 2533DECAN   C125311   3.465   9.173  12.538  0.0564  0.5834  0.2208
 2533DECAN   C225312   3.482   9.058  12.639 -0.1869 -0.1754 -0.5923
 2533DECAN   C325313   3.359   9.045  12.732  0.0357 -0.7888 -0.3807
 2533DECAN   C425314   3.399   8.975  12.864  0.2250  0.5366  0.2774
 2533DECAN   C525315   3.279   8.941  12.955  0.4261 -0.3842  0.2082
 2533DECAN   C625316   3.278   8.842  13.072  0.1787 -0.5999  0.0240
 2533DECAN   C725317   3.147   8.840  13.154  0.2001  0.3587  0.0966
 2533DECAN   C825318   3.168   8.741  13.270  0.1759  0.5330  0.2488
 2533DECAN   C925319   3.049   8.731  13.368 -0.1097 -0.0539 -0.1519
 2533DECAN  C1025320   3.065   8.657  13.502 -0.1442  0.4278  0.1215
 2534DECAN   C125321   9.830   4.619   5.200  0.7683  0.2643 -0.0739
 2534DECAN   C225322   9.911   4.511   5.125 -0.3192 -0.5151 -0.1477
 2534DECAN   C325323   9.824   4.390   5.085 -0.2049 -0.4308 -0.6589
 2534DECAN   C425324   9.743   4.319   5.195 -0.0008  0.5254  0.1282
 2534DECAN   C525325   9.629   4.231   5.140  0.3939 -0.2231  0.4874
 2534DECAN   C625326   9.540   4.169   5.249 -0.6220  0.3721  0.0228
 2534DECAN   C725327   9.413   4.094   5.207 -0.2870 -0.3608  0.2762
 2534DECAN   C825328   9.331   4.046   5.328 -0.1925 -0.6956  0.2078
 2534DECAN   C925329   9.188   3.994   5.303 -0.4705  0.1110  0.0981
 2534DECAN  C1025330   9.126   3.917   5.421  0.3996 -0.1284  0.4102
 2535DECAN   C125331   5.024   2.839  13.918  0.1793  0.6481  0.1568
 2535DECAN   C225332   4.984   2.986  13.900 -0.2916  0.4689 -0.3423
 2535DECAN   C325333   4.965   3.054  14.037 -0.2050  0.1437 -0.1667
 2535DECAN   C425334   4.861   2.984  14.126  0.7641 -0.7871  0.2491
 2535DECAN   C525335   4.855   3.054  14.264  0.8601 -0.2713 -0.0063
 2535DECAN   C625336   4.746   3.009  14.362  0.3226  0.0038 -0.4701
 2535DECAN   C725337   4.764   2.862  14.404  0.0326  0.1254  0.1035
 2535DECAN   C825338   4.659   2.824  14.509  0.4743 -0.3768  0.3705
 2535DECAN   C925339   4.636   2.674  14.537  0.0098 -0.3934 -0.0859
 2535DECAN  C1025340   4.771   2.618  14.584  0.0826 -0.4131 -0.3165
 2536DECAN   C125341   4.222   2.865  10.239  0.7570  0.1948 -0.4516
 2536DECAN   C225342   4.240   3.017  10.222 -0.2327  0.3823  0.0921
 2536DECAN   C325343   4.178   3.089  10.102  0.4027  0.3765 -0.2428
 2536DECAN   C425344   4.223   3.236  10.096 -0.0130  0.5245  0.1953
 2536DECAN   C525345   4.162   3.336  10.196 -0.5532  0.0751  0.3188
 2536DECAN   C625346   4.211   3.335  10.342 -0.3639 -0.0550  0.2543
 2536DECAN   C725347   4.223   3.474  10.408 -0.0691  0.0397  0.0024
 2536DECAN   C825348   4.256   3.469  10.558 -0.4218  0.3560  0.0903
 2536DECAN   C925349   4.237   3.606  10.627 -0.2397  0.2677  0.3175
 2536DECAN  C1025350   4.248   3.611  10.781  0.4344  0.0651  0.2777
 2537DECAN   C125351   8.551   2.172  10.178 -0.1349  0.0677 -0.3482
 2537DECAN   C225352   8.678   2.222  10.107  0.0796  0.4987  0.3325
 2537DECAN   C325353   8.818   2.167  10.142 -0.2632 -0.0332  0.8866
 2537DECAN   C425354   8.934   2.252  10.087 -0.1934 -0.3789  0.5005
 2537DECAN   C525355   9.074   2.196  10.116 -0.0132  0.0439  0.4512
 2537DECAN   C625356   9.181   2.269  10.032 -1.0101  0.7832 -0.1925
 2537DECAN   C725357   9.166   2.423  10.037 -0.4176  0.8206  0.5203
 2537DECAN   C825358   9.273   2.504   9.962 -0.1584  0.0273  0.0270
 2537DECAN   C925359   9.224   2.646   9.930 -0.2448  0.0975  0.4629
 2537DECAN  C1025360   9.200   2.691   9.785  0.3168  0.1584  0.3835
 2538DECAN   C125361   7.401   0.182   6.370 -0.3354 -0.4306 -0.4073
 2538DECAN   C225362   7.496   0.237   6.478 -0.5189  0.1597 -0.5391
 2538DECAN   C325363   7.431   0.301   6.602 -0.3370  0.0251 -0.3726
 2538DECAN   C425364   7.341   0.200   6.676  0.2350 -0.2980 -0.1161
 2538DECAN   C525365   7.330   0.240   6.824 -0.2581 -0.7074 -0.0404
 2538DECAN   C625366   7.468   0.249   6.893  0.0697  0.0758 -0.7678
 2538DECAN   C725367   7.467   0.319   7.030 -0.3969 -0.2072 -0.6215
 2538DECAN   C825368   7.591   0.310   7.121 -0.6567 -0.3378 -0.2787
 2538DECAN   C925369   7.570   0.405   7.240 -0.2318 -0.4867 -0.0817
 2538DECAN  C1025370   7.665   0.399   7.360 -0.0385  1.0704 -0.1372
 2539DECAN   C125371   8.918   9.384   9.718 -0.0809 -0.3189  0.8907
 2539DECAN   C225372   8.890   9.342   9.573  0.3929 -0.1281  0.7459
 2539DECAN   C325373   9.025   9.359   9.499  0.3066 -0.0732  0.6007
 2539DECAN   C425374   9.037   9.305   9.355 -0.5699  0.0878  0.4596
 2539DECAN   C525375   9.186   9.308   9.316 -0.5944  0.1110  0.3707
 2539DECAN   C625376   9.263   9.202   9.397 -0.1012  0.2891  0.1409
 2539DECAN   C725377   9.413   9.205   9.362 -0.2465  0.2423 -0.4872
 2539DECAN   C825378   9.485   9.319   9.436  0.3551 -0.7118  0.4213
 2539DECAN   C925379   9.631   9.347   9.398  0.0605  0.2566 -0.0288
 2539DECAN  C1025380   9.664   9.359   9.248  0.1383  0.0940 -0.0251
 2540DECAN   C125381   7.638   7.872  10.564  0.1633 -0.5044 -0.5677
 2540DECAN   C225382   7.708   7.738  10.534  0.3732 -0.3994 -0.5551
 2540DECAN   C325383   7.700   7.614  10.625  0.1492 -0.0173 -0.0471
 2540DECAN   C425384   7.823   7.521  10.628  0.3667  0.2756  0.1007
 2540DECAN   C525385   7.808   7.391  10.709 -0.2238  0.2713 -0.0164
 2540DECAN   C625386   7.922   7.295  10.672 -0.1771  0.3942 -0.1933
 2540DECAN   C725387   8.069   7.335  10.693 -0.0960 -0.5353  1.1178
 2540DECAN   C825388   8.159   7.210  10.705  0.1887 -0.5274 -0.6800
 2540DECAN   C925389   8.128   7.142  10.840 -0.0963  0.7063 -0.1120
 2540DECAN  C1025390   8.154   7.243  10.953  0.0211  0.4194  0.1185
 2541DECAN   C125391  10.031   0.380  12.348  0.3709 -0.5235 -0.1916
 2541DECAN   C225392   9.896   0.322  12.299  0.1343 -0.6428  0.5954
 2541DECAN   C325393   9.776   0.397  12.360  0.2593 -0.3549  0.4887
 2541DECAN   C425394   9.789   0.550  12.352 -0.2539 -0.3289  0.1096
 2541DECAN   C525395   9.678   0.632  12.419 -0.3578 -0.1445 -0.2846
 2541DECAN   C625396   9.673   0.784  12.393 -0.4270 -0.1243 -0.1535
 2541DECAN   C725397   9.691   0.829  12.247 -0.1770 -0.1116 -0.1184
 2541DECAN   C825398   9.673   0.981  12.231 -0.3496 -0.0785  0.3538
 2541DECAN   C925399   9.723   1.066  12.349  0.7785 -0.2185 -0.0087
 2541DECAN  C1025400   9.622   1.088  12.463  0.2831  0.1001 -0.5071
 2542DECAN   C125401   5.273   3.618   4.100 -0.0985 -0.0398  0.6774
 2542DECAN   C225402   5.371   3.507   4.056  0.0953  0.5183 -0.3343
 2542DECAN   C325403   5.516   3.558   4.046  0.3409 -0.0489  0.2373
 2542DECAN   C425404   5.593   3.480   3.938  0.0301 -0.0568  0.0197
 2542DECAN   C525405   5.716   3.559   3.889 -0.0025  0.1423  0.2522
 2542DECAN   C625406   5.840   3.470   3.863  0.1651  0.3187  0.4490
 2542DECAN   C725407   5.892   3.404   3.992 -0.3942 -0.2667  0.3763
 2542DECAN   C825408   5.939   3.495   4.106  0.3299  0.1854 -0.2799
 2542DECAN   C925409   5.977   3.417   4.233 -0.2051  0.3950  0.0114
 2542DECAN  C1025410   5.861   3.377   4.326 -0.3272 -0.7124 -0.5904
 2543DECAN   C125411   7.503   6.207  11.655  0.2702  0.7783  0.0686
 2543DECAN   C225412   7.389   6.298  11.606 -0.1297  0.0484 -0.3752
 2543DECAN   C325413   7.447   6.440  11.589  0.4409 -0.2059 -0.5760
 2543DECAN   C425414   7.343   6.545  11.546  0.6514 -0.0446 -0.6898
 2543DECAN   C525415   7.389   6.691  11.528  0.1651  0.2497  0.3874
 2543DECAN   C625416   7.290   6.798  11.479 -0.0654 -0.1311  0.0223
 2543DECAN   C725417   7.154   6.781  11.549  0.0030 -0.4757  0.0731
 2543DECAN   C825418   7.037   6.873  11.509  0.5008  0.0620 -0.1598
 2543DECAN   C925419   6.903   6.798  11.504  0.4249  0.1833  0.0694
 2543DECAN  C1025420   6.778   6.884  11.473 -0.0476 -0.5431 -0.0785
 2544DECAN   C125421  10.434   2.096  11.140 -0.1862  0.2713  0.3838
 2544DECAN   C225422  10.432   2.146  10.995  0.1887  0.5906  0.4874
 2544DECAN   C325423  10.339   2.261  10.954 -0.6978 -0.5336 -0.7430
 2544DECAN   C425424  10.366   2.292  10.805  0.0733  0.6256 -0.3748
 2544DECAN   C525425  10.342   2.166  10.720  0.0312  0.3193  0.0853
 2544DECAN   C625426  10.196   2.128  10.690  0.1838 -0.2435  0.0386
 2544DECAN   C725427  10.188   1.986  10.632 -0.5278 -0.2556  0.1619
 2544DECAN   C825428  10.041   1.952  10.600 -0.4701 -0.2831 -0.0810
 2544DECAN   C925429   9.990   1.810  10.570 -0.1627 -0.4444  0.1537
 2544DECAN  C1025430   9.837   1.788  10.571 -0.2882  0.3941  0.5304
 2545DECAN   C125431   1.871   7.147  10.388  0.0460  0.2544 -0.0133
 2545DECAN   C225432   1.841   7.110  10.534 -0.6107  0.6931 -0.0334
 2545DECAN   C325433   1.966   7.109  10.624 -0.0176 -0.2380 -0.8475
 2545DECAN   C425434   2.034   6.971  10.608  0.4113 -0.1822  0.3688
 2545DECAN   C525435   2.162   6.953  10.691  0.8330  0.3886 -0.1461
 2545DECAN   C625436   2.118   6.934  10.837  0.0444  0.7202 -0.3328
 2545DECAN   C725437   2.237   6.920  10.935 -0.1834  0.1031 -0.1340
 2545DECAN   C825438   2.293   7.061  10.965  0.3016 -0.0313 -0.3891
 2545DECAN   C925439   2.313   7.136  10.832  0.4526  0.0635 -0.3120
 2545DECAN  C1025440   2.355   7.284  10.849 -0.1143  0.1772  0.1148
 2546DECAN   C125441   8.246   2.397  15.154 -0.4669  0.3890 -0.2192
 2546DECAN   C225442   8.241   2.537  15.088  0.2022  0.3535 -0.3505
 2546DECAN   C325443   8.352   2.639  15.117 -0.2021  0.5525  0.5382
 2546DECAN   C425444   8.326   2.777  15.053 -0.0867  0.1587 -0.3761
 2546DECAN   C525445   8.448   2.871  15.054 -0.1836  0.2802  0.3267
 2546DECAN   C625446   8.407   3.001  14.982  0.4587  0.0309 -0.5045
 2546DECAN   C725447   8.347   2.978  14.842 -0.1240  0.0806 -0.2638
 2546DECAN   C825448   8.383   3.086  14.739  0.3186  0.4615  0.2811
 2546DECAN   C925449   8.342   3.232  14.766 -0.0766  0.3156  0.4687
 2546DECAN  C1025450   8.397   3.317  14.650 -0.0151  0.9703  0.9783
 2547DECAN   C125451   5.721  10.367  13.884 -0.3606  0.1733  0.2115
 2547DECAN   C225452   5.649  10.481  13.809  0.2694  0.3829 -0.0782
 2547DECAN   C325453   5.744  10.595  13.768  0.3575  0.0896 -0.7100
 2547DECAN   C425454   5.764  10.701  13.878 -0.1603 -0.4240 -0.1117
 2547DECAN   C525455   5.876  10.657  13.975 -0.0475  0.2283  0.0598
 2547DECAN   C625456   5.833  10.698  14.117 -0.0019  0.2548  0.0657
 2547DECAN   C725457   5.783  10.844  14.128  0.0503  0.3120 -0.4464
 2547DECAN   C825458   5.730  10.885  14.267  0.4695  0.2584 -0.2702
 2547DECAN   C925459   5.656  11.018  14.240 -0.0159  0.0139 -0.1511
 2547DECAN  C1025460   5.609  11.106  14.357  0.0049  0.1240 -0.2266
 2548DECAN   C125461   4.305   9.028  13.854 -0.4372  0.1908  0.3248
 2548DECAN   C225462   4.427   9.041  13.761 -0.3827  0.4312  0.4304
 2548DECAN   C325463   4.562   9.091  13.817 -0.1182 -0.3105  0.4564
 2548DECAN   C425464   4.687   9.055  13.733  0.0574 -0.2241  0.6818
 2548DECAN   C525465   4.820   9.057  13.811  0.6673  0.3527 -0.3654
 2548DECAN   C625466   4.935   8.971  13.754  0.6206  0.1803 -0.2004
 2548DECAN   C725467   5.070   8.991  13.826  0.3455  0.4119  0.2579
 2548DECAN   C825468   5.173   8.899  13.758  0.0601  0.4283 -0.2083
 2548DECAN   C925469   5.308   8.882  13.831 -0.0945  0.3966  0.0709
 2548DECAN  C1025470   5.394   8.786  13.746  0.0333  0.2890  0.3177
 2549DECAN   C125471  10.439   0.017  10.889  0.0557  0.4306 -0.1189
 2549DECAN   C225472  10.401  11.188  11.019 -1.2338 -0.1052 -0.7776
 2549DECAN   C325473  10.291   0.009  11.105 -0.3590  0.3005  0.0547
 2549DECAN   C425474  10.315   0.152  11.157 -0.0457  0.2694 -0.0047
 2549DECAN   C525475  10.206   0.214  11.246  0.0258 -0.2884  0.4730
 2549DECAN   C625476  10.241   0.193  11.394  0.9016  0.7353  0.4202
 2549DECAN   C725477  10.140   0.252  11.494 -0.5110  0.0532 -0.5755
 2549DECAN   C825478  10.193   0.271  11.637  0.8509 -0.3831 -1.0102
 2549DECAN   C925479  10.329   0.342  11.659  0.7106 -0.4140 -0.0121
 2549DECAN  C1025480  10.332   0.486  11.605  0.4016 -0.3108  0.2371
 2550DECAN   C125481   7.326   2.461   5.092  0.0270  0.6952 -0.3248
 2550DECAN   C225482   7.389   2.342   5.168 -0.1276  1.0333  0.3463
 2550DECAN   C325483   7.356   2.355   5.317  0.7371  0.1913  0.6208
 2550DECAN   C425484   7.368   2.234   5.413  0.0185 -0.0261  0.4459
 2550DECAN   C525485   7.270   2.118   5.387  0.5805 -0.4295  0.1074
 2550DECAN   C625486   7.264   2.005   5.491 -0.0148 -0.0726  0.4676
 2550DECAN   C725487   7.171   1.890   5.448 -0.0229  0.1355 -0.0794
 2550DECAN   C825488   7.167   1.775   5.551 -0.0852  0.2101  0.0018
 2550DECAN   C925489   7.078   1.664   5.492  0.4265  0.0002 -0.3841
 2550DECAN  C1025490   7.124   1.618   5.353  0.0618 -0.1962 -0.4421
 2551DECAN   C125491   9.840   9.768  14.952 -0.1893 -0.2711  0.1038
 2551DECAN   C225492   9.992   9.784  14.932 -0.3103  0.4624 -0.2597
 2551DECAN   C325493  10.062   9.649  14.904 -0.6649  0.3490 -0.6163
 2551DECAN   C425494  10.035   9.604  14.760 -0.0872 -0.1384 -0.5729
 2551DECAN   C525495   9.897   9.543  14.728  0.0333 -0.7744  0.1146
 2551DECAN   C625496   9.877   9.534  14.576  0.1648 -0.2376  0.0657
 2551DECAN   C725497   9.742   9.476  14.530  0.3916 -0.2931 -0.5407
 2551DECAN   C825498   9.627   9.569  14.486  0.3453 -0.1393 -0.0979
 2551DECAN   C925499   9.516   9.484  14.423  0.2056 -0.1545  0.1680
 2551DECAN  C1025500   9.408   9.565  14.349  0.4255  0.3502  0.4009
 2552DECAN   C125501  10.947   8.426  11.951  0.0343 -0.4838  0.3337
 2552DECAN   C225502  10.941   8.476  12.096  0.2599 -0.1888  0.2439
 2552DECAN   C325503  10.818   8.423  12.173 -0.2403 -0.1022 -0.4822
 2552DECAN   C425504  10.684   8.482  12.125 -0.1052  0.1488 -0.5547
 2552DECAN   C525505  10.568   8.430  12.213 -0.1174  0.2171 -0.5300
 2552DECAN   C625506  10.439   8.512  12.188 -0.4590 -0.0849  0.2125
 2552DECAN   C725507  10.373   8.498  12.050  0.1703  0.3049 -0.1355
 2552DECAN   C825508  10.253   8.592  12.027  0.4029  0.5386 -0.4047
 2552DECAN   C925509  10.125   8.573  12.111  0.2523 -0.0268 -0.7537
 2552DECAN  C1025510  10.006   8.666  12.081  0.1884  0.0076 -0.3937
 2553DECAN   C125511   6.156   7.066   7.465  0.0865 -0.5634  0.2647
 2553DECAN   C225512   6.117   7.181   7.559  0.0843 -0.4786  0.1593
 2553DECAN   C325513   6.186   7.313   7.518 -0.2333 -0.4012 -0.1278
 2553DECAN   C425514   6.156   7.358   7.374  0.1155  0.1600 -0.0273
 2553DECAN   C525515   6.285   7.401   7.301  0.5621 -0.1145  0.5919
 2553DECAN   C625516   6.262   7.543   7.248  0.0062 -0.5356 -0.3174
 2553DECAN   C725517   6.382   7.601   7.169 -0.3419 -0.2232 -0.6206
 2553DECAN   C825518   6.388   7.541   7.028 -0.2150 -0.0301 -0.6984
 2553DECAN   C925519   6.505   7.593   6.942  0.2180 -0.5921 -0.4595
 2553DECAN  C1025520   6.471   7.556   6.796  0.7388  0.2400 -0.7959
 2554DECAN   C125521   7.034   0.385  13.380 -0.0200  0.4834  0.1745
 2554DECAN   C225522   6.886   0.406  13.343 -0.0141 -0.4138 -0.3826
 2554DECAN   C325523   6.835   0.547  13.377  0.0286 -0.5671  0.3247
 2554DECAN   C425524   6.843   0.582  13.527  0.0033 -0.1664  0.2339
 2554DECAN   C525525   6.793   0.725  13.555 -0.1328 -0.0868 -0.4038
 2554DECAN   C625526   6.795   0.779  13.699 -0.0459 -0.4266 -0.2781
 2554DECAN   C725527   6.754   0.925  13.726  0.4160 -0.3095 -0.1960
 2554DECAN   C825528   6.706   0.964  13.867  0.3851 -0.4185 -0.1760
 2554DECAN   C925529   6.556   0.937  13.886  0.2502  0.6009  0.2805
 2554DECAN  C1025530   6.502   0.793  13.888  0.5905  0.4685  0.0080
 2555DECAN   C125531   2.553  10.312   6.130  0.1407  0.5471  0.0176
 2555DECAN   C225532   2.618  10.181   6.178 -0.6571  0.2030  0.1719
 2555DECAN   C325533   2.525  10.058   6.182  0.3953 -0.6361 -0.3553
 2555DECAN   C425534   2.451  10.035   6.049 -0.3399  0.1915 -0.1031
 2555DECAN   C525535   2.387   9.895   6.043  0.3885 -0.1449 -0.0924
 2555DECAN   C625536   2.286   9.880   5.928 -0.0400  0.6366  0.1764
 2555DECAN   C725537   2.212   9.745   5.924 -0.2001  0.7227  0.1803
 2555DECAN   C825538   2.133   9.720   5.794 -0.1133 -0.2396  0.3079
 2555DECAN   C925539   2.219   9.717   5.667 -0.0595 -0.3466  0.3463
 2555DECAN  C1025540   2.270   9.850   5.609  0.1661 -0.5399  0.0950
 2556DECAN   C125541   6.824   6.771  10.321 -0.0275 -0.2586  0.4075
 2556DECAN   C225542   6.729   6.892  10.330 -0.1037 -0.3188  0.4030
 2556DECAN   C325543   6.667   6.916  10.191  0.4715  0.3925  0.2646
 2556DECAN   C425544   6.587   7.048  10.184  0.7172  0.5463  0.3577
 2556DECAN   C525545   6.535   7.091  10.045  0.3001  0.0973  0.3747
 2556DECAN   C625546   6.400   7.164  10.043  0.3483  0.1867  0.3760
 2556DECAN   C725547   6.276   7.072  10.057  0.1204  0.3081 -0.7369
 2556DECAN   C825548   6.131   7.122  10.073 -0.0461 -0.4344  0.1473
 2556DECAN   C925549   6.095   7.180  10.211 -0.2955  0.3856 -0.2566
 2556DECAN  C1025550   6.108   7.088  10.333  0.2297  0.1402 -0.4932
 2557DECAN   C125551   2.370   8.610  11.612 -0.0397  0.6908  0.2349
 2557DECAN   C225552   2.298   8.735  11.561 -0.2469  0.2296 -0.6315
 2557DECAN   C325553   2.197   8.719  11.446 -0.7044  0.0275 -0.2054
 2557DECAN   C425554   2.263   8.695  11.309 -0.4538  0.2341 -0.1214
 2557DECAN   C525555   2.167   8.679  11.189 -0.2872  0.2942 -0.2647
 2557DECAN   C625556   2.218   8.586  11.078  0.5436  0.6349 -0.1754
 2557DECAN   C725557   2.101   8.570  10.979  0.3166  0.5915  0.0956
 2557DECAN   C825558   2.141   8.468  10.870  0.2902  0.5347  0.1390
 2557DECAN   C925559   2.023   8.455  10.772  0.4512 -0.1250  0.0323
 2557DECAN  C1025560   2.041   8.338  10.673 -0.3473 -0.3966  0.1994
 2558DECAN   C125561   2.274   1.060  14.419 -1.1181  0.3109 -0.5637
 2558DECAN   C225562   2.390   1.144  14.362  0.2075 -0.7182  0.5648
 2558DECAN   C325563   2.462   1.228  14.470  0.2094  0.0604 -0.0350
 2558DECAN   C425564   2.529   1.356  14.417  0.7062  0.1663  0.8323
 2558DECAN   C525565   2.591   1.430  14.537  0.2069  0.2172  1.0604
 2558DECAN   C625566   2.669   1.556  14.495 -0.0563  0.2391  0.6227
 2558DECAN   C725567   2.730   1.638  14.611  0.0373  0.4949  0.3932
 2558DECAN   C825568   2.627   1.723  14.688  0.0065  0.1548  0.7276
 2558DECAN   C925569   2.689   1.808  14.801 -0.2938  0.5885  0.5680
 2558DECAN  C1025570   2.750   1.708  14.901  0.5332  0.3098 -0.1957
 2559DECAN   C125571   5.008   2.742   4.855 -0.0709  0.1517  0.3478
 2559DECAN   C225572   4.895   2.722   4.958 -0.3165 -0.2667 -0.0008
 2559DECAN   C325573   4.788   2.832   4.948 -0.4689 -0.4371 -0.2760
 2559DECAN   C425574   4.704   2.843   5.077 -0.1007 -0.5082 -0.0274
 2559DECAN   C525575   4.592   2.949   5.082  0.2627 -0.0945 -0.5274
 2559DECAN   C625576   4.654   3.090   5.081 -0.5357  0.2627 -0.0809
 2559DECAN   C725577   4.704   3.129   5.221 -1.0838  0.6263  0.0174
 2559DECAN   C825578   4.770   3.269   5.217  0.1675  0.0567  0.1188
 2559DECAN   C925579   4.673   3.381   5.177 -0.0205 -0.1630 -0.0418
 2559DECAN  C1025580   4.740   3.518   5.154 -0.2753 -0.1599 -0.7937
 2560DECAN   C125581  10.857  11.173  10.979  0.1682  0.4256 -0.0773
 2560DECAN   C225582  10.889   0.078  11.003  0.1555  0.3892  0.1668
 2560DECAN   C325583  11.037   0.106  11.032  0.2174  0.1350  0.0914
 2560DECAN   C425584  11.086   0.037  11.161  0.2058 -0.2203 -0.0919
 2560DECAN   C525585  11.093   0.144  11.272  0.4831 -0.0758 -0.2465
 2560DECAN   C625586  11.151   0.109  11.410  0.2608 -0.1031 -0.1600
 2560DECAN   C725587  11.140   0.229  11.506  0.9154  0.1095 -0.3505
 2560DECAN   C825588  11.178   0.205  11.654 -0.2100 -0.0346 -0.0796
 2560DECAN   C925589  11.102   0.093  11.727  0.0636 -0.0112  0.2431
 2560DECAN  C1025590  11.118  11.193  11.676 -0.2307 -0.0769  0.3348
 2561DECAN   C125591   5.561  11.056   7.949 -0.0366  0.8119 -0.8611
 2561DECAN   C225592   5.532  11.149   8.068  0.3280 -0.2367  0.0641
 2561DECAN   C325593   5.521  11.080   8.205 -0.0593  0.4191  0.3707
 2561DECAN   C425594   5.529  11.187   8.316 -0.4447  0.1956  0.6162
 2561DECAN   C525595   5.402   0.029   8.328 -0.6859 -0.0424 -0.1759
 2561DECAN   C625596   5.282  11.192   8.382 -0.1013 -0.4106  0.5904
 2561DECAN   C725597   5.159   0.036   8.411  0.1282  0.0406  0.2078
 2561DECAN   C825598   5.054  11.188   8.477 -0.1826  0.2656  0.0340
 2561DECAN   C925599   4.928   0.019   8.524 -0.3288 -0.0526  0.1444
 2561DECAN  C1025600   4.835   0.067   8.411 -0.3748 -0.6176 -0.0656
 2562DECAN   C125601   5.926   4.239   7.869  0.0573  0.2736  0.2752
 2562DECAN   C225602   5.972   4.384   7.896 -0.5108  0.4804  0.1359
 2562DECAN   C325603   6.039   4.465   7.783 -0.1886 -0.2169 -0.1796
 2562DECAN   C425604   6.177   4.404   7.749  0.1047  0.2792  0.1031
 2562DECAN   C525605   6.231   4.443   7.610  0.1560 -0.1346  0.0080
 2562DECAN   C625606   6.357   4.362   7.570  0.1069 -0.3745  0.3330
 2562DECAN   C725607   6.414   4.409   7.435  0.0345 -0.2679  0.3400
 2562DECAN   C825608   6.535   4.327   7.388  0.2789  0.2502  0.0570
 2562DECAN   C925609   6.603   4.398   7.269 -0.2701  0.1029 -0.3520
 2562DECAN  C1025610   6.731   4.327   7.218  0.0306  0.0824  0.4134
 2563DECAN   C125611   4.168   4.257  15.124  0.1061  0.0226 -0.4227
 2563DECAN   C225612   4.309   4.321  15.125 -0.0056  0.2705 -0.0378
 2563DECAN   C325613   4.432   4.235  15.088  0.3322  0.4639  0.6289
 2563DECAN   C425614   4.568   4.307  15.099  0.4054  0.3354  0.5585
 2563DECAN   C525615   4.692   4.221  15.067  0.3726  0.2819  0.5752
 2563DECAN   C625616   4.828   4.293  15.070  0.5531 -0.0441  0.2134
 2563DECAN   C725617   4.941   4.221  14.994  0.0824 -0.2858 -0.2650
 2563DECAN   C825618   5.061   4.317  14.985 -0.2723  0.1645 -0.2478
 2563DECAN   C925619   5.193   4.260  14.929 -0.2754  0.0318 -0.1205
 2563DECAN  C1025620   5.301   4.369  14.935  0.0868 -0.3205 -0.2002
 2564DECAN   C125621   3.134   8.207  10.391  0.1929 -0.4860  0.1630
 2564DECAN   C225622   3.018   8.150  10.307 -0.1234  0.4438 -0.0449
 2564DECAN   C325623   2.885   8.143  10.385 -0.2293  0.0582 -0.2586
 2564DECAN   C425624   2.774   8.087  10.294 -0.0031 -0.2224 -0.3617
 2564DECAN   C525625   2.695   7.987  10.381 -0.1202  0.6517  0.5632
 2564DECAN   C625626   2.559   7.941  10.326  0.0720  0.1764  0.4696
 2564DECAN   C725627   2.492   7.841  10.422 -0.3027  0.0261  0.0521
 2564DECAN   C825628   2.539   7.694  10.425 -0.3982 -0.0126 -0.2735
 2564DECAN   C925629   2.462   7.605  10.524 -0.3406 -0.1329 -0.3373
 2564DECAN  C1025630   2.513   7.585  10.668  0.7803  0.6995 -0.6022
 2565DECAN   C125631   3.604  10.191   4.160 -0.4443 -0.5932  0.3740
 2565DECAN   C225632   3.629  10.098   4.040 -0.4999 -0.1153 -0.0103
 2565DECAN   C325633   3.662   9.953   4.082  0.2191  0.1349  0.3036
 2565DECAN   C425634   3.536   9.897   4.152 -0.1706  0.3572 -0.2106
 2565DECAN   C525635   3.544   9.751   4.201 -0.8922  0.4981  0.3367
 2565DECAN   C625636   3.411   9.695   4.254 -0.7397  0.3621  0.5764
 2565DECAN   C725637   3.412   9.546   4.293  0.2538  0.1849 -0.1047
 2565DECAN   C825638   3.266   9.504   4.320  0.2202  0.5086  0.2090
 2565DECAN   C925639   3.158   9.558   4.224 -0.0733 -0.1868  0.1454
 2565DECAN  C1025640   3.013   9.541   4.271 -0.2817  0.3123 -0.3042
 2566DECAN   C125641   7.079   6.315  14.585  0.4026 -1.0384 -0.0183
 2566DECAN   C225642   6.943   6.245  14.561  0.0806 -0.3356 -0.2605
 2566DECAN   C325643   6.874   6.294  14.432 -0.3936  0.3509  0.2476
 2566DECAN   C425644   6.739   6.228  14.400 -0.1800  0.1397 -0.2255
 2566DECAN   C525645   6.628   6.267  14.500 -0.1406 -0.4379  0.0522
 2566DECAN   C625646   6.627   6.165  14.615 -0.2399 -0.7512 -0.2265
 2566DECAN   C725647   6.507   6.184  14.709  0.2741 -0.2726  0.3436
 2566DECAN   C825648   6.519   6.090  14.830 -0.1535 -0.3826  0.3019
 2566DECAN   C925649   6.396   6.097  14.922 -0.0611  0.4064  0.3671
 2566DECAN  C1025650   6.400   6.009  15.048  0.1589 -0.3805 -0.1880
 2567DECAN   C125651   7.145   4.592   7.352 -0.2074 -0.4587 -0.1164
 2567DECAN   C225652   7.209   4.609   7.213  0.2731 -0.2403  0.1300
 2567DECAN   C325653   7.113   4.582   7.095  0.2938 -0.1485  0.0921
 2567DECAN   C425654   6.971   4.637   7.116  0.2001 -0.3563  0.0068
 2567DECAN   C525655   6.968   4.791   7.125 -0.0985 -0.3296 -0.5324
 2567DECAN   C625656   6.824   4.844   7.134  0.1285  0.2821 -0.4583
 2567DECAN   C725657   6.731   4.778   7.237  0.1501  0.2168 -0.4803
 2567DECAN   C825658   6.788   4.776   7.380 -0.1979  0.1966 -0.3407
 2567DECAN   C925659   6.686   4.725   7.483 -0.6018  0.6086 -0.5343
 2567DECAN  C1025660   6.546   4.790   7.476 -0.7078  0.4097 -0.2635
 2568DECAN   C125661  10.464   2.351   6.864 -0.1256 -0.2453 -0.9171
 2568DECAN   C225662  10.326   2.334   6.931  0.1984 -0.4497 -0.2943
 2568DECAN   C325663  10.279   2.188   6.945  0.4369 -0.4766  0.2348
 2568DECAN   C425664  10.142   2.190   7.015  0.2500 -0.1594 -0.1343
 2568DECAN   C525665  10.078   2.053   7.046 -0.1530  0.1573  0.4531
 2568DECAN   C625666  10.145   1.970   7.157  0.5105  0.0449 -0.0309
 2568DECAN   C725667  10.046   1.868   7.215  0.2728  0.1538 -0.2398
 2568DECAN   C825668  10.112   1.756   7.298 -0.1062  0.2943  0.2550
 2568DECAN   C925669  10.007   1.649   7.331 -0.1287  0.2895  0.1668
 2568DECAN  C1025670   9.905   1.604   7.225 -0.1889  0.4210  0.1694
 2569DECAN   C125671  10.391   6.625   9.173 -0.8429  0.3375 -0.3791
 2569DECAN   C225672  10.323   6.514   9.256 -0.4303  0.0510 -0.4219
 2569DECAN   C325673  10.355   6.544   9.404  0.4286 -0.0522 -0.5809
 2569DECAN   C425674  10.496   6.496   9.441  0.1098 -0.1086  0.5781
 2569DECAN   C525675  10.554   6.576   9.559 -0.2620  0.6035  0.2837
 2569DECAN   C625676  10.515   6.542   9.704 -0.0932 -0.0883  0.1690
 2569DECAN   C725677  10.582   6.417   9.765 -0.0199 -0.1429 -0.0225
 2569DECAN   C825678  10.563   6.390   9.916  0.0339  0.1895  0.0436
 2569DECAN   C925679  10.659   6.468  10.007  0.1212 -0.1121  0.2091
 2569DECAN  C1025680  10.644   6.621  10.004  0.2979 -0.0949  0.1842
 2570DECAN   C125681   8.462   7.249   6.773 -0.1960 -0.1403 -0.5311
 2570DECAN   C225682   8.497   7.104   6.736  0.0132 -0.0590 -0.6489
 2570DECAN   C325683   8.366   7.036   6.693 -0.1542 -0.1233 -0.0417
 2570DECAN   C425684   8.387   6.888   6.656  0.0316 -0.1042 -0.0105
 2570DECAN   C525685   8.425   6.786   6.765  0.4159  0.6559  0.5803
 2570DECAN   C625686   8.563   6.812   6.828  0.6266  0.0676  0.3737
 2570DECAN   C725687   8.578   6.742   6.964 -0.1773 -0.9018 -0.0226
 2570DECAN   C825688   8.707   6.760   7.046 -0.1184  0.4280 -0.3732
 2570DECAN   C925689   8.745   6.908   7.063  0.4660  0.2697 -0.2697
 2570DECAN  C1025690   8.873   6.919   7.148  0.4009 -0.2973 -0.0970
 2571DECAN   C125691   4.516   4.011  14.296  0.0571  0.1864 -0.1172
 2571DECAN   C225692   4.373   3.981  14.250  0.0898  0.1758 -0.2139
 2571DECAN   C325693   4.353   3.828  14.261  0.1307  0.1716 -0.1984
 2571DECAN   C425694   4.208   3.777  14.252  0.1555 -0.0310  0.5418
 2571DECAN   C525695   4.193   3.624  14.266 -0.5289 -0.0212 -0.0671
 2571DECAN   C625696   4.249   3.530  14.158 -0.5986 -0.2654  0.1092
 2571DECAN   C725697   4.243   3.383  14.202  0.2886 -0.1592  0.6018
 2571DECAN   C825698   4.295   3.268  14.114 -0.3423  0.3826 -0.4865
 2571DECAN   C925699   4.257   3.130  14.171  0.3023  0.6271  0.5599
 2571DECAN  C1025700   4.103   3.122  14.179  0.2937 -0.4938 -0.4316
 2572DECAN   C125701   9.219  10.652  12.290 -0.3402 -0.1693 -0.6073
 2572DECAN   C225702   9.211  10.694  12.142  0.0371  0.1623 -0.5383
 2572DECAN   C325703   9.098  10.797  12.124 -0.3071  0.0082  0.6216
 2572DECAN   C425704   9.116  10.904  12.232 -0.1540 -0.0052  0.6088
 2572DECAN   C525705   9.018  11.023  12.231  0.1012  0.2037 -0.2309
 2572DECAN   C625706   9.049  11.101  12.360 -0.2676  0.1176 -0.0879
 2572DECAN   C725707   8.951  11.215  12.392  0.7277  1.0474 -0.3202
 2572DECAN   C825708   8.963   0.016  12.538  0.7908 -0.3939  0.1298
 2572DECAN   C925709   9.054   0.139  12.552  0.0011  0.2374 -0.1854
 2572DECAN  C1025710   9.004   0.273  12.496 -0.1652  0.3775  0.2927
 2573DECAN   C125711   5.546   7.084   6.091  0.4238 -0.4063  0.2220
 2573DECAN   C225712   5.561   7.237   6.097  0.3531 -0.4017  0.2815
 2573DECAN   C325713   5.675   7.293   6.184  0.1765 -0.1409  0.3480
 2573DECAN   C425714   5.812   7.265   6.119 -0.1620 -0.0472 -0.4137
 2573DECAN   C525715   5.925   7.291   6.221 -0.4417 -0.8917  0.1225
 2573DECAN   C625716   6.064   7.253   6.166 -0.3655  0.1168 -0.4003
 2573DECAN   C725717   6.107   7.309   6.029  0.8375 -0.2949 -0.2010
 2573DECAN   C825718   6.008   7.299   5.911  0.6055 -0.7162  0.0283
 2573DECAN   C925719   6.066   7.348   5.777  0.5636  0.0500  0.2827
 2573DECAN  C1025720   6.186   7.253   5.756  0.2657 -0.1732 -0.4181
 2574DECAN   C125721   9.554   9.516  14.898 -0.1290 -0.0001  0.1983
 2574DECAN   C225722   9.410   9.568  14.876 -0.2206 -0.2986  0.1003
 2574DECAN   C325723   9.409   9.685  14.776 -0.1485 -0.1132  0.3162
 2574DECAN   C425724   9.265   9.711  14.729  0.1355 -0.0937 -0.5718
 2574DECAN   C525725   9.258   9.838  14.643  0.5640  0.2481 -0.1088
 2574DECAN   C625726   9.126   9.861  14.567  0.5279  0.6470  0.0724
 2574DECAN   C725727   9.129   9.983  14.472  0.3531  0.7693  0.2234
 2574DECAN   C825728   9.232   9.960  14.360  0.0530 -0.0300  0.1018
 2574DECAN   C925729   9.193  10.043  14.236  0.2429  0.3015  0.2630
 2574DECAN  C1025730   9.302  10.021  14.130 -0.1000 -0.0098 -0.0272
 2575DECAN   C125731   4.976   9.859   9.925 -0.0253 -0.4365  0.0191
 2575DECAN   C225732   4.890   9.943  10.021  0.2134 -0.1124 -0.0463
 2575DECAN   C325733   4.917  10.094  10.019  0.0323 -0.0713  0.3538
 2575DECAN   C425734   4.818  10.170  10.108 -0.0862  0.2558 -0.0544
 2575DECAN   C525735   4.675  10.132  10.066  0.0879 -0.0545 -0.3653
 2575DECAN   C625736   4.572  10.225  10.133  0.2570 -0.0035 -0.1763
 2575DECAN   C725737   4.607  10.370  10.095  0.6852  0.1194  0.6703
 2575DECAN   C825738   4.536  10.491  10.161 -0.0272  0.1358 -0.1110
 2575DECAN   C925739   4.550  10.621  10.080  0.5467 -0.1646 -0.5136
 2575DECAN  C1025740   4.688  10.689  10.075  0.4580  0.0147 -0.5472
 2576DECAN   C125741   6.949   9.623  14.445  0.9133  0.1450 -0.8683
 2576DECAN   C225742   6.879   9.758  14.466 -0.2878 -0.5333 -0.4143
 2576DECAN   C325743   6.811   9.785  14.601  0.3030 -0.2715 -0.1664
 2576DECAN   C425744   6.808   9.936  14.631 -0.2099 -0.3635  0.2575
 2576DECAN   C525745   6.942  10.007  14.608 -0.1486 -0.3781  0.5583
 2576DECAN   C625746   6.955  10.151  14.662  0.1714 -0.4060  0.5577
 2576DECAN   C725747   7.095  10.210  14.638 -0.2564  0.2170 -0.4409
 2576DECAN   C825748   7.211  10.112  14.662 -0.5050 -0.0109 -0.1735
 2576DECAN   C925749   7.238  10.087  14.812 -0.9183  0.1413 -0.0716
 2576DECAN  C1025750   7.312  10.210  14.867 -0.2013  0.0058 -0.7113
 2577DECAN   C125751   3.866   2.696   3.821 -0.3876  0.0374  0.1650
 2577DECAN   C225752   3.832   2.746   3.963  0.4169  0.0278  0.3648
 2577DECAN   C325753   3.686   2.732   4.009  0.4046  0.3270  0.4162
 2577DECAN   C425754   3.600   2.847   3.955 -0.0769 -0.0875  0.2956
 2577DECAN   C525755   3.457   2.858   4.013 -0.2613  0.0738 -0.1851
 2577DECAN   C625756   3.401   3.002   4.006  0.3452  0.3363  0.2601
 2577DECAN   C725757   3.276   3.033   4.091  0.0228 -0.0729 -0.0600
 2577DECAN   C825758   3.214   3.168   4.050  0.1724  0.0556  0.1362
 2577DECAN   C925759   3.081   3.205   4.119 -0.0453  0.0849 -0.2951
 2577DECAN  C1025760   3.013   3.332   4.065 -0.6411 -0.1018  0.0070
 2578DECAN   C125761   7.972   0.508  12.931 -0.0466 -0.1354 -0.2658
 2578DECAN   C225762   8.075   0.550  13.038 -0.0699 -0.7537  0.0066
 2578DECAN   C325763   8.095   0.457  13.159 -0.5829 -0.5606  0.2394
 2578DECAN   C425764   7.976   0.471  13.256 -0.4440  0.0375  0.3225
 2578DECAN   C525765   7.983   0.399  13.392 -0.6281 -0.1610  0.2247
 2578DECAN   C625766   7.982   0.245  13.382  0.4625 -0.1918  0.4878
 2578DECAN   C725767   8.085   0.179  13.288  0.0156  0.0964 -0.2132
 2578DECAN   C825768   8.051   0.029  13.295  0.2609  0.0494 -0.0246
 2578DECAN   C925769   7.949  11.232  13.188  0.4089 -0.1956 -0.0747
 2578DECAN  C1025770   7.816   0.065  13.169  0.1625 -0.5797  0.0730
 2579DECAN   C125771   4.918   5.378  14.191 -0.7200  0.1500 -0.5544
 2579DECAN   C225772   4.854   5.255  14.257 -0.0891  0.1708  0.1112
 2579DECAN   C325773   4.877   5.245  14.409  0.1187 -0.1659  0.0586
 2579DECAN   C425774   4.818   5.116  14.469  0.0670 -0.0833  0.1866
 2579DECAN   C525775   4.669   5.080  14.476  0.1773 -0.5733  0.0980
 2579DECAN   C625776   4.644   4.930  14.497 -0.2831 -0.5051  0.0646
 2579DECAN   C725777   4.494   4.908  14.524 -0.3434 -0.0883  0.0735
 2579DECAN   C825778   4.454   4.760  14.514  0.0142 -0.1978  0.2653
 2579DECAN   C925779   4.475   4.708  14.371 -0.2576 -0.3171  0.2681
 2579DECAN  C1025780   4.477   4.554  14.384  0.7617 -0.3489 -0.1626
 2580DECAN   C125781   7.331   8.666  11.615 -0.3242 -0.6188 -0.0619
 2580DECAN   C225782   7.273   8.618  11.480  0.8817  0.1416 -0.8681
 2580DECAN   C325783   7.246   8.467  11.465 -0.1117  0.2441 -0.1730
 2580DECAN   C425784   7.173   8.430  11.334 -0.3157 -0.1634  0.0548
 2580DECAN   C525785   7.128   8.283  11.324 -0.7702  0.0268 -0.7546
 2580DECAN   C625786   7.245   8.184  11.322 -0.5555  0.2689 -0.3713
 2580DECAN   C725787   7.195   8.039  11.335 -0.0213  0.1154  0.0159
 2580DECAN   C825788   7.295   7.931  11.291 -0.2889 -0.0858 -0.0988
 2580DECAN   C925789   7.247   7.785  11.301  0.0002 -0.2056 -0.4481
 2580DECAN  C1025790   7.137   7.757  11.197  0.0410 -0.2861 -0.4695
 2581DECAN   C125791   1.759   9.309  13.876  0.0308 -0.4675 -0.2743
 2581DECAN   C225792   1.756   9.436  13.789  0.1233 -0.4771 -0.2905
 2581DECAN   C325793   1.630   9.441  13.700 -0.0221 -0.0714 -0.0616
 2581DECAN   C425794   1.637   9.556  13.597  0.0268 -0.1243 -0.1163
 2581DECAN   C525795   1.503   9.573  13.523  0.0970  0.1208 -0.1858
 2581DECAN   C625796   1.452   9.446  13.453 -0.2638  0.2392 -0.1446
 2581DECAN   C725797   1.532   9.427  13.322  0.5301 -0.0383  0.3710
 2581DECAN   C825798   1.532   9.561  13.246 -0.3795 -0.0401  0.3521
 2581DECAN   C925799   1.600   9.558  13.108 -0.3085  0.0497  0.3852
 2581DECAN  C1025800   1.638   9.689  13.036 -0.2282 -0.1512  0.0580
 2582DECAN   C125801   8.497   4.141   6.165  0.0041 -0.3445  0.4163
 2582DECAN   C225802   8.356   4.140   6.225  0.0565  0.0365  0.5467
 2582DECAN   C325803   8.245   4.133   6.119 -0.1710 -0.3377  0.8066
 2582DECAN   C425804   8.099   4.168   6.156 -0.2518 -0.3354  0.4876
 2582DECAN   C525805   8.015   4.196   6.030  0.1031 -0.0824  0.3053
 2582DECAN   C625806   7.868   4.218   6.067  0.0428  0.1341 -0.0557
 2582DECAN   C725807   7.835   4.138   6.195  0.3456  0.2908  0.1231
 2582DECAN   C825808   7.732   4.195   6.294  0.5666  0.3000  0.3483
 2582DECAN   C925809   7.728   4.151   6.442  0.0392  0.3310  0.3441
 2582DECAN  C1025810   7.597   4.199   6.508 -0.2637 -0.0687  0.0383
 2583DECAN   C125811   4.394   5.885  15.043  0.1949  0.1292  0.2917
 2583DECAN   C225812   4.248   5.862  14.997  0.3280  0.5388 -0.3461
 2583DECAN   C325813   4.135   5.929  15.077  0.5013  0.2645  0.1340
 2583DECAN   C425814   3.991   5.876  15.058  0.4082  0.5722 -0.0251
 2583DECAN   C525815   3.880   5.960  15.124 -0.1926 -0.5722  0.4511
 2583DECAN   C625816   3.743   5.891  15.125 -0.7586  0.5204  0.3911
 2583DECAN   C725817   3.689   5.847  14.988  0.2002 -0.3746  0.2860
 2583DECAN   C825818   3.560   5.762  14.987  0.1016 -0.2252  0.0933
 2583DECAN   C925819   3.589   5.622  15.044 -0.1385 -0.2699  0.1021
 2583DECAN  C1025820   3.471   5.523  15.032 -0.8036  0.5912 -0.6012
 2584DECAN   C125821   2.159   4.429   5.014  0.2991  0.5547  0.2249
 2584DECAN   C225822   2.148   4.451   5.166 -0.0048  0.1368  0.2632
 2584DECAN   C325823   2.027   4.380   5.230 -0.3288  0.8839  0.4926
 2584DECAN   C425824   2.042   4.359   5.382 -0.1683 -0.2276  0.3359
 2584DECAN   C525825   1.934   4.266   5.441  0.0266 -0.1668  0.7956
 2584DECAN   C625826   1.947   4.115   5.415  0.1578 -0.0293  0.0400
 2584DECAN   C725827   1.832   4.027   5.468  0.1333 -0.1008 -0.1302
 2584DECAN   C825828   1.864   3.978   5.611 -0.0076 -0.0264 -0.0727
 2584DECAN   C925829   1.868   4.098   5.707 -0.8477  0.0066 -0.0714
 2584DECAN  C1025830   1.881   4.075   5.859  0.1749 -0.3291 -0.1992
 2585DECAN   C125831   7.579   8.756   9.968  0.5529  0.2237  0.3064
 2585DECAN   C225832   7.693   8.813   9.881  0.5055 -0.3289 -0.1295
 2585DECAN   C325833   7.656   8.933   9.791 -0.0366 -0.1276  0.3541
 2585DECAN   C425834   7.773   8.996   9.713 -0.4600  0.2679  0.0315
 2585DECAN   C525835   7.720   9.110   9.624  0.0008  1.0039  0.6926
 2585DECAN   C625836   7.821   9.204   9.555  0.1560  0.1219 -0.2960
 2585DECAN   C725837   7.918   9.133   9.458  0.6321  0.0001  0.2640
 2585DECAN   C825838   7.852   9.110   9.321  0.1308 -0.3680  0.5643
 2585DECAN   C925839   7.728   9.019   9.329 -0.0150 -0.2426 -0.1914
 2585DECAN  C1025840   7.665   9.006   9.190 -0.5014  0.7256 -0.0666
 2586DECAN   C125841  10.003   4.575   7.405  0.9118  0.0891 -0.4510
 2586DECAN   C225842  10.087   4.689   7.466 -0.0150  0.3258  0.4071
 2586DECAN   C325843  10.082   4.818   7.382  0.3154 -0.1458 -0.3439
 2586DECAN   C425844  10.150   4.927   7.468 -0.3883  0.1062 -0.0955
 2586DECAN   C525845  10.300   4.910   7.502 -0.3538 -0.2824 -0.4242
 2586DECAN   C625846  10.318   4.795   7.603  0.0504 -0.3809 -0.6116
 2586DECAN   C725847  10.463   4.745   7.620 -0.1191 -0.8720 -0.5713
 2586DECAN   C825848  10.552   4.835   7.707 -0.6429 -0.5640 -0.3506
 2586DECAN   C925849  10.699   4.788   7.706 -0.3939  0.1856 -0.1503
 2586DECAN  C1025850  10.796   4.843   7.812 -0.1008 -0.1785 -0.2258
 2587DECAN   C125851   5.147   2.153  12.763  0.2599 -0.1600 -0.0075
 2587DECAN   C225852   5.186   2.277  12.681 -0.2817 -0.0159 -0.0541
 2587DECAN   C325853   5.279   2.233  12.566  0.0682  0.6612 -0.0412
 2587DECAN   C425854   5.244   2.293  12.429 -0.4445  0.2462 -0.0939
 2587DECAN   C525855   5.308   2.250  12.296 -0.2992  0.3015 -0.0431
 2587DECAN   C625856   5.232   2.306  12.174 -0.2526 -0.1017 -0.2592
 2587DECAN   C725857   5.271   2.248  12.037 -0.0503 -0.5970  0.0069
 2587DECAN   C825858   5.192   2.329  11.933  0.5721  0.2344  0.1638
 2587DECAN   C925859   5.213   2.480  11.911 -0.2600  0.2953 -0.2450
 2587DECAN  C1025860   5.176   2.553  12.041 -1.0309  0.4269 -0.5280
 2588DECAN   C125861   3.353   2.107   8.121 -0.8359  0.3652 -1.0199
 2588DECAN   C225862   3.263   1.983   8.118  0.2256 -0.4436 -0.2060
 2588DECAN   C325863   3.316   1.858   8.193  0.4886 -0.3689 -0.2660
 2588DECAN   C425864   3.207   1.749   8.196 -0.1337  0.2397 -0.2688
 2588DECAN   C525865   3.262   1.637   8.286 -0.2332  0.2316 -0.2174
 2588DECAN   C625866   3.172   1.512   8.284 -0.2003  0.2019  0.1379
 2588DECAN   C725867   3.152   1.464   8.139 -0.2060  0.0202  0.1998
 2588DECAN   C825868   3.083   1.327   8.127 -0.9846  0.4133  0.1410
 2588DECAN   C925869   3.102   1.259   7.990 -0.2689  0.2726  0.3049
 2588DECAN  C1025870   3.044   1.117   7.978 -0.6233  0.4100  0.3811
 2589DECAN   C125871   4.878   3.634  10.023  0.2367 -0.4694  0.5520
 2589DECAN   C225872   4.998   3.730  10.028  0.1303 -0.3251  0.3747
 2589DECAN   C325873   4.967   3.853  10.115 -0.2256 -0.0769 -0.0988
 2589DECAN   C425874   4.835   3.928  10.093  0.0215  0.3847 -0.0326
 2589DECAN   C525875   4.709   3.856  10.145  0.0901  0.3418  0.0736
 2589DECAN   C625876   4.691   3.846  10.298 -0.2369 -0.8361 -0.0283
 2589DECAN   C725877   4.568   3.765  10.341 -0.3633 -0.6617 -0.0610
 2589DECAN   C825878   4.542   3.769  10.493 -0.6621 -1.1427 -0.0957
 2589DECAN   C925879   4.645   3.694  10.580 -0.1096 -0.0976  0.1684
 2589DECAN  C1025880   4.612   3.673  10.729  0.3199 -0.0024  0.2780
 2590DECAN   C125881   2.938   2.273   8.668 -0.7854 -0.2939 -0.1087
 2590DECAN   C225882   2.813   2.303   8.751 -0.1312  0.8179  0.4972
 2590DECAN   C325883   2.750   2.442   8.729 -0.1434  0.6686 -0.4219
 2590DECAN   C425884   2.632   2.453   8.827 -0.1994 -0.0675 -0.3972
 2590DECAN   C525885   2.526   2.564   8.813  0.3589  0.4458 -0.5839
 2590DECAN   C625886   2.425   2.548   8.698 -0.0937 -0.6964 -0.0357
 2590DECAN   C725887   2.316   2.656   8.693  0.4051 -0.1924 -0.0547
 2590DECAN   C825888   2.201   2.626   8.595  0.1655 -0.5394  0.3310
 2590DECAN   C925889   2.237   2.568   8.457  0.3573  0.0746  0.1201
 2590DECAN  C1025890   2.384   2.603   8.424  0.2534 -0.0212 -0.4466
 2591DECAN   C125891   0.685   2.032  10.622  0.2486  0.0003 -0.3249
 2591DECAN   C225892   0.749   2.156  10.557  0.2569  0.1664 -0.0021
 2591DECAN   C325893   0.755   2.167  10.404  0.0744  0.0011 -0.0213
 2591DECAN   C425894   0.775   2.310  10.352 -0.0074 -0.1206 -0.3926
 2591DECAN   C525895   0.743   2.308  10.201  0.0283 -0.0628 -0.4018
 2591DECAN   C625896   0.705   2.446  10.145 -0.3867 -0.0789 -0.1711
 2591DECAN   C725897   0.705   2.448   9.991 -0.3848  0.3586 -0.1657
 2591DECAN   C825898   0.700   2.588   9.926 -0.0102  0.3189 -0.2838
 2591DECAN   C925899   0.692   2.565   9.774  0.0539 -0.6203 -0.1500
 2591DECAN  C1025900   0.655   2.694   9.698  0.6761 -0.3575 -0.0091
 2592DECAN   C125901   6.076   7.979   6.370 -0.0103 -0.4602  0.2570
 2592DECAN   C225902   5.972   7.866   6.374 -0.3698 -0.1276  0.2841
 2592DECAN   C325903   5.901   7.880   6.237 -0.0283 -0.1262  0.1063
 2592DECAN   C425904   5.795   7.769   6.225  0.2103 -0.3907  0.4195
 2592DECAN   C525905   5.698   7.802   6.110  0.4966  0.0031  0.2904
 2592DECAN   C625906   5.613   7.692   6.045  0.7321 -0.0266  0.0299
 2592DECAN   C725907   5.543   7.713   5.909  0.7972  0.3230  0.0505
 2592DECAN   C825908   5.648   7.738   5.800 -0.0056  0.2407 -0.7521
 2592DECAN   C925909   5.745   7.623   5.767  0.0098 -0.0470  0.2508
 2592DECAN  C1025910   5.844   7.625   5.649 -0.1418 -0.1672  0.1206
 2593DECAN   C125911  10.037   9.902  10.778  0.0674 -0.9056  0.6407
 2593DECAN   C225912  10.169   9.945  10.710 -0.2127 -0.5279  0.3254
 2593DECAN   C325913  10.225   9.825  10.632  0.1862 -0.2238  0.1450
 2593DECAN   C425914  10.371   9.840  10.583  0.1030  0.2255  0.0367
 2593DECAN   C525915  10.404   9.802  10.438  0.3527 -0.0712  0.1690
 2593DECAN   C625916  10.555   9.815  10.413  0.3656 -0.0051  0.2781
 2593DECAN   C725917  10.592   9.758  10.275 -0.4668 -0.5302  0.2689
 2593DECAN   C825918  10.743   9.754  10.243 -0.6274 -0.5811 -0.5108
 2593DECAN   C925919  10.792   9.690  10.112 -0.0800 -0.1728 -0.5093
 2593DECAN  C1025920  10.945   9.688  10.094 -0.0895  0.3214 -0.6524
 2594DECAN   C125921   9.488   1.803   8.345 -0.4591  0.3237 -0.3486
 2594DECAN   C225922   9.573   1.746   8.460 -0.3608  0.6786 -0.2440
 2594DECAN   C325923   9.510   1.768   8.598  0.2111 -0.4269  0.2093
 2594DECAN   C425924   9.592   1.741   8.725  0.5171 -0.3361  0.0297
 2594DECAN   C525925   9.517   1.748   8.859  0.0464  0.7771 -0.2822
 2594DECAN   C625926   9.611   1.708   8.975 -0.6444  0.0948  0.0510
 2594DECAN   C725927   9.676   1.570   8.962  0.1519  0.4229  0.5104
 2594DECAN   C825928   9.775   1.520   9.069  0.3546 -0.8379 -0.2361
 2594DECAN   C925929   9.713   1.504   9.209  0.2524  0.0776 -0.1656
 2594DECAN  C1025930   9.662   1.635   9.271 -0.1133 -0.0621 -0.1671
 2595DECAN   C125931   6.003   4.753   6.681 -0.0752  0.6326  0.3170
 2595DECAN   C225932   5.920   4.726   6.554 -0.0317 -0.0087  0.4233
 2595DECAN   C325933   5.831   4.601   6.544  0.5893 -0.4251  0.0312
 2595DECAN   C425934   5.724   4.589   6.654  0.3588  0.0283 -0.1426
 2595DECAN   C525935   5.665   4.448   6.678 -0.0262  0.1462 -0.3813
 2595DECAN   C625936   5.586   4.393   6.558 -0.0610 -0.1183 -0.2376
 2595DECAN   C725937   5.678   4.402   6.434  0.6271  0.2574  0.2918
 2595DECAN   C825938   5.631   4.336   6.303 -0.1586  0.3161  0.5369
 2595DECAN   C925939   5.737   4.340   6.192 -0.6517  0.3992  0.0694
 2595DECAN  C1025940   5.694   4.284   6.055  0.4449  0.0408 -0.1345
 2596DECAN   C125941   8.763   7.190  11.509 -0.1398 -0.0387 -0.3762
 2596DECAN   C225942   8.771   7.049  11.447  0.0154  0.1850 -0.8695
 2596DECAN   C325943   8.684   7.023  11.323 -1.0342  0.3354 -0.1773
 2596DECAN   C425944   8.714   7.121  11.208  0.2372 -0.3989 -0.4871
 2596DECAN   C525945   8.636   7.089  11.079  0.1812 -0.5489 -0.4172
 2596DECAN   C625946   8.673   7.196  10.975 -0.0730 -0.2163 -0.1687
 2596DECAN   C725947   8.576   7.220  10.858  0.0938 -0.1931 -0.3016
 2596DECAN   C825948   8.630   7.335  10.771 -0.3239  0.3036  0.0891
 2596DECAN   C925949   8.532   7.396  10.670  0.2561  0.6139 -0.2934
 2596DECAN  C1025950   8.428   7.489  10.736 -0.2768 -0.3561  0.2480
 2597DECAN   C125951   7.924   7.859   7.640  0.6309 -0.4365  0.0514
 2597DECAN   C225952   7.883   7.712   7.659 -0.3811 -0.0812  0.6645
 2597DECAN   C325953   7.729   7.701   7.671 -0.3875 -0.3279  0.3513
 2597DECAN   C425954   7.668   7.559   7.679  0.6491 -0.8085 -0.0450
 2597DECAN   C525955   7.704   7.477   7.804  0.0552 -0.9132  0.0594
 2597DECAN   C625956   7.608   7.497   7.923 -0.4216 -0.1234 -0.4484
 2597DECAN   C725957   7.465   7.451   7.892 -0.5056  0.3237 -0.7427
 2597DECAN   C825958   7.441   7.299   7.900  0.4283  0.1787 -0.6402
 2597DECAN   C925959   7.295   7.256   7.880  0.4215  0.2300 -0.6993
 2597DECAN  C1025960   7.279   7.103   7.879  0.0161  0.2559  0.2284
 2598DECAN   C125961   4.371   7.138  13.597  0.6424  0.2016 -0.6892
 2598DECAN   C225962   4.425   7.254  13.683  0.1531 -0.0720 -0.0045
 2598DECAN   C325963   4.505   7.359  13.604 -0.1905 -0.0310 -0.3009
 2598DECAN   C425964   4.571   7.472  13.685 -0.2797  0.0197 -0.2984
 2598DECAN   C525965   4.678   7.543  13.600  0.2710 -0.2772  0.1436
 2598DECAN   C625966   4.748   7.649  13.688 -0.0288 -0.0487  0.1075
 2598DECAN   C725967   4.674   7.763  13.760  0.0288  0.0286  0.0447
 2598DECAN   C825968   4.765   7.857  13.840  0.6954 -0.9945  0.5154
 2598DECAN   C925969   4.886   7.896  13.752 -0.1024  0.0659 -0.1420
 2598DECAN  C1025970   4.961   8.005  13.832  0.0746 -0.3460  0.2617
 2599DECAN   C125971  10.582   1.927   7.937  0.0880  0.2474  0.5628
 2599DECAN   C225972  10.617   1.812   8.033  0.4234  0.1196  0.2904
 2599DECAN   C325973  10.564   1.839   8.175  0.2988  0.2865  0.2132
 2599DECAN   C425974  10.412   1.849   8.198  0.2867  0.3939  0.0820
 2599DECAN   C525975  10.378   1.884   8.344  0.1514  0.4371  0.0416
 2599DECAN   C625976  10.229   1.872   8.382  0.2822  0.0715  0.4568
 2599DECAN   C725977  10.199   1.853   8.532  0.4608  0.5467  0.5551
 2599DECAN   C825978  10.049   1.876   8.559  0.2057  0.0087 -0.3501
 2599DECAN   C925979   9.991   2.019   8.562  0.3204  0.0492 -0.0292
 2599DECAN  C1025980   9.840   2.030   8.589  0.3039  0.3904 -0.2515
 2600DECAN   C125981   7.751   0.912   8.490  0.5199 -0.8211 -0.1756
 2600DECAN   C225982   7.821   0.885   8.356 -0.2524 -0.3994 -0.6708
 2600DECAN   C325983   7.950   0.970   8.356 -0.5489  0.0590 -0.0275
 2600DECAN   C425984   7.999   1.019   8.219  0.1966 -0.0970  0.1752
 2600DECAN   C525985   8.119   1.115   8.202 -0.1942  0.3298 -0.2258
 2600DECAN   C625986   8.140   1.159   8.056  0.6020 -0.4753 -0.3616
 2600DECAN   C725987   8.230   1.284   8.046  0.1113 -0.0656  0.2317
 2600DECAN   C825988   8.192   1.412   8.121 -0.1428  0.1174 -0.2080
 2600DECAN   C925989   8.173   1.391   8.273 -0.2707  0.2081 -0.2102
 2600DECAN  C1025990   8.131   1.518   8.348  0.2062  0.2606 -0.0259
 2601DECAN   C125991   8.707   1.372  11.256  0.3067 -0.3458 -0.2245
 2601DECAN   C225992   8.697   1.219  11.254  0.2582 -0.3392 -0.4828
 2601DECAN   C325993   8.722   1.145  11.387  0.0169 -0.0124 -0.2571
 2601DECAN   C425994   8.726   0.993  11.368 -0.2260 -0.0544  0.0117
 2601DECAN   C525995   8.726   0.921  11.504  0.1402  0.3521  0.2282
 2601DECAN   C625996   8.726   0.768  11.486  0.6679  0.3700  0.0685
 2601DECAN   C725997   8.745   0.685  11.614  0.1101 -0.0796 -0.1395
 2601DECAN   C825998   8.742   0.535  11.575  0.2524 -0.0360 -0.3191
 2601DECAN   C925999   8.880   0.495  11.521  0.4732  0.1407  0.1009
 2601DECAN  C1026000   8.870   0.341  11.523 -0.3124  0.1895  0.2966
 2602DECAN   C126001   9.544   2.283   7.320 -0.0013 -0.2706 -0.8092
 2602DECAN   C226002   9.404   2.274   7.256 -0.3363  0.6959 -0.2311
 2602DECAN   C326003   9.355   2.413   7.211 -0.5228  0.7844  0.2456
 2602DECAN   C426004   9.469   2.508   7.170  0.2961 -0.2055  0.1912
 2602DECAN   C526005   9.417   2.641   7.112 -0.0087 -0.5501 -0.3340
 2602DECAN   C626006   9.537   2.724   7.064  0.0329 -0.5053 -0.1549
 2602DECAN   C726007   9.510   2.852   6.983 -0.2450 -0.7123 -0.3900
 2602DECAN   C826008   9.561   2.980   7.052 -0.3162 -0.9248  0.0588
 2602DECAN   C926009   9.712   2.973   7.078 -0.2376  0.0835 -0.0754
 2602DECAN  C1026010   9.768   3.103   7.137  0.2893 -0.1322 -0.0897
 2603DECAN   C126011   2.084   2.405  11.358  0.2030  0.4532  0.0376
 2603DECAN   C226012   1.967   2.505  11.343 -0.0858  0.1346  0.1585
 2603DECAN   C326013   1.954   2.588  11.472  0.0461 -0.0586  0.2976
 2603DECAN   C426014   1.852   2.702  11.451  0.4439  0.2013 -0.2501
 2603DECAN   C526015   1.882   2.832  11.527 -0.2188  0.2937 -0.1458
 2603DECAN   C626016   1.776   2.942  11.503 -0.3126  0.2176 -0.0795
 2603DECAN   C726017   1.762   2.995  11.360 -0.0090  0.1786 -0.1248
 2603DECAN   C826018   1.873   3.095  11.322  0.2013  0.0761  0.2222
 2603DECAN   C926019   1.856   3.167  11.187 -0.4791 -0.1501  0.1836
 2603DECAN  C1026020   1.958   3.276  11.147 -0.3178 -0.1900  0.4825
 2604DECAN   C126021   7.849   9.297   3.940  0.6998 -0.3437 -0.5768
 2604DECAN   C226022   7.768   9.166   3.943 -0.4801  0.3788 -0.3620
 2604DECAN   C326023   7.809   9.079   4.064  0.1442  0.0497 -0.8033
 2604DECAN   C426024   7.749   8.938   4.052 -0.2787  0.1474  0.0681
 2604DECAN   C526025   7.792   8.864   4.180 -0.1442  0.0908 -0.0087
 2604DECAN   C626026   7.711   8.737   4.215 -0.7419  0.5579  0.3273
 2604DECAN   C726027   7.563   8.771   4.239 -0.8519 -0.0992  0.5955
 2604DECAN   C826028   7.490   8.849   4.128 -0.0124 -0.1420 -0.0012
 2604DECAN   C926029   7.339   8.858   4.159  0.1129 -0.3666  0.6996
 2604DECAN  C1026030   7.278   8.719   4.188 -0.0772 -0.2935  0.6470
 2605DECAN   C126031   4.691   0.502   4.029  0.3081 -0.1774 -0.3941
 2605DECAN   C226032   4.649   0.388   4.124 -0.0461  0.3000  0.0296
 2605DECAN   C326033   4.497   0.373   4.102 -0.0162  0.1910 -0.1047
 2605DECAN   C426034   4.440   0.281   4.212  0.3893  0.5760  0.4362
 2605DECAN   C526035   4.287   0.271   4.225  0.4233 -0.2611  0.2458
 2605DECAN   C626036   4.228   0.193   4.344 -0.0340  0.3072  0.3963
 2605DECAN   C726037   4.226   0.282   4.470  0.1759  0.5702  0.2157
 2605DECAN   C826038   4.149   0.216   4.586 -0.0746  0.1233 -0.1957
 2605DECAN   C926039   4.174   0.260   4.732  0.3129 -0.3535 -0.1169
 2605DECAN  C1026040   4.083   0.189   4.834 -0.4115  0.2712 -0.3196
 2606DECAN   C126041   4.593   4.259  10.349  0.0105 -0.5287  0.1087
 2606DECAN   C226042   4.707   4.271  10.452 -0.2474  0.2450  0.3091
 2606DECAN   C326043   4.857   4.260  10.419 -0.2763 -0.1093  0.2880
 2606DECAN   C426044   4.946   4.289  10.541  0.2738  0.2292 -0.1889
 2606DECAN   C526045   4.878   4.255  10.675  0.0685  0.9017 -0.1220
 2606DECAN   C626046   4.939   4.323  10.798  0.6026  0.1164  0.0536
 2606DECAN   C726047   4.918   4.476  10.806 -0.0716  0.0525 -0.4324
 2606DECAN   C826048   4.768   4.503  10.828 -0.0808  0.1092 -0.5657
 2606DECAN   C926049   4.731   4.636  10.896 -0.1006 -0.3201  0.2824
 2606DECAN  C1026050   4.586   4.682  10.875 -0.0727 -0.5485 -0.4624
 2607DECAN   C126051   5.577   4.332  13.539  0.5027 -0.7238  0.3060
 2607DECAN   C226052   5.601   4.410  13.669 -0.1176 -0.2140  0.1180
 2607DECAN   C326053   5.727   4.497  13.680 -0.3006  0.1902 -0.9143
 2607DECAN   C426054   5.734   4.623  13.591 -0.4083  0.3999 -0.6278
 2607DECAN   C526055   5.878   4.663  13.551  0.0611  0.0494  0.6408
 2607DECAN   C626056   5.881   4.796  13.474  0.0070  0.1290  0.7762
 2607DECAN   C726057   6.019   4.864  13.469  0.0247  0.0600  0.2058
 2607DECAN   C826058   6.013   5.008  13.415 -0.2046 -0.1490 -0.3310
 2607DECAN   C926059   6.143   5.083  13.451 -0.2248 -0.0430 -0.4771
 2607DECAN  C1026060   6.169   5.226  13.402  0.1002  0.1169  0.1558
 2608DECAN   C126061   6.809   0.344  14.624 -0.2143  0.3111 -0.2516
 2608DECAN   C226062   6.852   0.300  14.483  0.3119 -0.2503  0.0801
 2608DECAN   C326063   7.003   0.270  14.473  0.4448  0.2280  0.6418
 2608DECAN   C426064   7.042   0.215  14.335 -0.3566  0.1368  0.4445
 2608DECAN   C526065   7.193   0.185  14.321 -0.5247 -0.3940 -0.2984
 2608DECAN   C626066   7.228   0.109  14.192 -0.1903 -0.1782 -0.3354
 2608DECAN   C726067   7.379   0.117  14.163 -0.1799 -0.0187 -0.2375
 2608DECAN   C826068   7.431   0.052  14.033 -0.6282 -0.1078 -0.3720
 2608DECAN   C926069   7.421  11.143  14.020  0.1532 -0.1686 -0.2973
 2608DECAN  C1026070   7.281  11.083  14.041  0.2429 -0.3657 -0.2627
 2609DECAN   C126071   2.975   7.096   4.135 -0.5151  0.1723  0.2369
 2609DECAN   C226072   2.858   7.010   4.188 -0.5126  0.0009 -0.0319
 2609DECAN   C326073   2.762   7.064   4.296 -0.5332 -0.1280  0.0140
 2609DECAN   C426074   2.814   7.068   4.441 -0.2766 -0.4187 -0.0668
 2609DECAN   C526075   2.864   6.929   4.483 -0.2181 -0.2814  0.3161
 2609DECAN   C626076   2.883   6.902   4.634 -0.2208 -0.1403  0.3423
 2609DECAN   C726077   2.958   6.771   4.664 -0.2950 -0.2637  0.0049
 2609DECAN   C826078   2.937   6.738   4.813 -0.1602  0.0732  0.1001
 2609DECAN   C926079   3.018   6.617   4.863 -0.1285 -0.0473 -0.2471
 2609DECAN  C1026080   3.169   6.647   4.853 -0.1670  0.2903  0.1694
 2610DECAN   C126081   8.311   3.563  10.514  0.1003 -0.3774  0.3264
 2610DECAN   C226082   8.172   3.608  10.566  0.0377  0.3585 -0.4549
 2610DECAN   C326083   8.176   3.729  10.660  0.2339 -0.1632  0.2195
 2610DECAN   C426084   8.045   3.810  10.664  0.1029 -0.3404 -0.3842
 2610DECAN   C526085   7.924   3.725  10.707  0.0209 -0.1047 -0.1465
 2610DECAN   C626086   7.794   3.803  10.732 -0.1123 -0.4784  0.3476
 2610DECAN   C726087   7.670   3.719  10.769 -0.5339 -0.0268 -0.0252
 2610DECAN   C826088   7.678   3.581  10.700  0.0896 -0.0612  0.1139
 2610DECAN   C926089   7.545   3.525  10.647 -0.0322 -0.4683  0.8390
 2610DECAN  C1026090   7.433   3.469  10.737 -0.2167 -0.6840  0.4776
 2611DECAN   C126091  10.010   0.913   8.135  0.5253  1.1557  0.2584
 2611DECAN   C226092  10.141   0.845   8.089 -0.1408  0.2538 -0.3373
 2611DECAN   C326093  10.132   0.793   7.944  0.0208 -0.4178 -0.1105
 2611DECAN   C426094  10.252   0.713   7.889  0.5544 -0.2920  0.8299
 2611DECAN   C526095  10.258   0.673   7.740 -0.0371  0.3686  0.6192
 2611DECAN   C626096  10.338   0.776   7.660 -0.2863  0.0012 -0.1122
 2611DECAN   C726097  10.367   0.724   7.518  0.2210 -0.0232 -0.0040
 2611DECAN   C826098  10.377   0.839   7.416 -0.5193  0.1911  0.1550
 2611DECAN   C926099  10.433   0.784   7.283  0.7038  0.3387  0.5928
 2611DECAN  C1026100  10.451   0.902   7.187  0.0219 -0.1280 -0.1252
 2612DECAN   C126101   4.192   9.473   9.926 -0.0275  0.0074 -0.7359
 2612DECAN   C226102   4.277   9.359   9.985 -0.1992  0.0631 -0.3779
 2612DECAN   C326103   4.201   9.277  10.091 -0.1774  0.2036 -0.2529
 2612DECAN   C426104   4.139   9.339  10.218  0.5024 -0.1363  0.2556
 2612DECAN   C526105   4.233   9.418  10.311 -0.0086  0.3994  0.3281
 2612DECAN   C626106   4.216   9.571  10.306 -0.4017  0.3526  0.2508
 2612DECAN   C726107   4.332   9.637  10.382 -0.2324  0.1029  0.2084
 2612DECAN   C826108   4.319   9.588  10.527 -0.1592 -0.0393  0.1673
 2612DECAN   C926109   4.404   9.656  10.637 -0.0396 -0.4290  0.3184
 2612DECAN  C1026110   4.388   9.607  10.782 -0.3751 -0.1144  0.3887
 2613DECAN   C126111   4.968  10.756   6.403 -0.1251 -0.5857 -0.0542
 2613DECAN   C226112   4.892  10.890   6.397  0.4581 -0.2573 -0.1886
 2613DECAN   C326113   4.883  10.989   6.514 -0.4263 -0.4276 -0.1070
 2613DECAN   C426114   4.773  10.944   6.612 -0.6359  0.4224  0.0587
 2613DECAN   C526115   4.783  11.054   6.719 -0.1779  0.3846  0.0569
 2613DECAN   C626116   4.701  11.180   6.686 -0.4697  0.2146  0.1258
 2613DECAN   C726117   4.675   0.051   6.785 -0.2539  0.2619  0.1264
 2613DECAN   C826118   4.801   0.085   6.867 -0.4269  0.4344  0.3219
 2613DECAN   C926119   4.774   0.139   7.009  0.1256  0.0578  0.5741
 2613DECAN  C1026120   4.725   0.021   7.095  0.4306 -0.2982  0.2602
 2614DECAN   C126121   6.761   9.024   7.999  0.0016 -0.2443  0.4357
 2614DECAN   C226122   6.904   9.042   8.053  0.3828 -0.1532 -0.5794
 2614DECAN   C326123   6.974   8.919   8.113 -0.0086  0.0917  0.4059
 2614DECAN   C426124   7.123   8.948   8.137  0.0072  0.5871 -0.2583
 2614DECAN   C526125   7.144   9.064   8.237 -0.1062  0.4014 -0.0172
 2614DECAN   C626126   7.278   9.042   8.310 -0.2852 -0.1909  0.1394
 2614DECAN   C726127   7.304   9.104   8.449 -0.4850  0.4196 -0.0928
 2614DECAN   C826128   7.431   9.049   8.516 -0.4952  0.0854 -0.3437
 2614DECAN   C926129   7.563   9.104   8.459 -0.2899 -0.5412 -0.4826
 2614DECAN  C1026130   7.688   9.019   8.490 -0.0130  0.1126  0.2350
 2615DECAN   C126131   3.121   8.144   9.498 -0.1140  0.2481  0.3932
 2615DECAN   C226132   3.147   8.295   9.489  0.0134  0.2009 -0.0614
 2615DECAN   C326133   3.155   8.361   9.628  0.1454 -0.0257  0.0396
 2615DECAN   C426134   3.274   8.327   9.719 -0.7317 -0.4706  1.0479
 2615DECAN   C526135   3.281   8.174   9.734 -0.1101 -0.5182  0.3510
 2615DECAN   C626136   3.395   8.108   9.813  0.4090 -0.2110 -0.1384
 2615DECAN   C726137   3.534   8.153   9.765  0.4352 -0.1874 -0.0396
 2615DECAN   C826138   3.541   8.307   9.767  0.0500 -0.1675 -0.0558
 2615DECAN   C926139   3.681   8.358   9.726 -0.1878  0.3298 -0.2584
 2615DECAN  C1026140   3.733   8.321   9.586  0.0533  0.0722 -0.1008
 2616DECAN   C126141   6.665   6.811  11.871 -0.6623  0.4237 -0.0392
 2616DECAN   C226142   6.595   6.848  12.003 -0.0640  0.4527  0.2729
 2616DECAN   C326143   6.685   6.945  12.083  0.5018  0.3919 -0.2815
 2616DECAN   C426144   6.635   7.009  12.213  0.0695 -0.2005 -0.1490
 2616DECAN   C526145   6.733   7.115  12.269 -0.3245  0.0385  0.0925
 2616DECAN   C626146   6.700   7.189  12.400 -0.0509  0.0055  0.1794
 2616DECAN   C726147   6.808   7.292  12.440  0.0928 -0.0200 -0.1401
 2616DECAN   C826148   6.801   7.408  12.339 -0.0013 -0.0601 -0.1802
 2616DECAN   C926149   6.924   7.498  12.317  0.3478 -0.4522  0.1644
 2616DECAN  C1026150   7.051   7.416  12.288  0.7272  0.2308 -0.1189
 2617DECAN   C126151   2.023   9.442  14.303  0.4043 -0.3279 -0.5602
 2617DECAN   C226152   2.075   9.417  14.446  0.0304 -0.0017 -0.3642
 2617DECAN   C326153   2.107   9.538  14.536  0.4224 -0.5100  0.1847
 2617DECAN   C426154   2.240   9.608  14.506  0.1168  0.0653  0.1613
 2617DECAN   C526155   2.376   9.545  14.543  0.0038 -0.2734 -0.0008
 2617DECAN   C626156   2.486   9.630  14.477 -0.0037 -0.2751 -0.0168
 2617DECAN   C726157   2.618   9.634  14.556  0.3904 -0.6570 -0.6523
 2617DECAN   C826158   2.708   9.744  14.496 -0.3020 -0.0442 -0.5870
 2617DECAN   C926159   2.856   9.722  14.531 -0.4065 -0.3526 -0.3414
 2617DECAN  C1026160   2.917   9.587  14.488  0.3649  0.0206 -0.4401
 2618DECAN   C126161  10.220   8.193  12.207 -0.7440  0.3190 -0.2465
 2618DECAN   C226162  10.084   8.191  12.280 -0.5213 -1.2091  0.1651
 2618DECAN   C326163   9.965   8.218  12.187 -0.0501  0.0860 -0.0847
 2618DECAN   C426164   9.840   8.281  12.252  0.2957  0.2997  0.3772
 2618DECAN   C526165   9.730   8.309  12.149  0.1595  0.1941  0.4957
 2618DECAN   C626166   9.617   8.402  12.198  0.1976  0.4450  0.1146
 2618DECAN   C726167   9.527   8.451  12.084  0.3137  0.4113  0.0088
 2618DECAN   C826168   9.441   8.566  12.141  0.0723  0.1953  0.0805
 2618DECAN   C926169   9.346   8.630  12.037  0.1391  0.1554 -0.0035
 2618DECAN  C1026170   9.229   8.542  11.988 -0.1596  0.3633  0.3375
 2619DECAN   C126171   6.364   1.320  15.028  0.3003 -0.2300  0.6781
 2619DECAN   C226172   6.474   1.419  14.985 -0.0306 -0.1029  0.1230
 2619DECAN   C326173   6.582   1.359  14.893 -0.2279  0.5478 -0.5477
 2619DECAN   C426174   6.685   1.458  14.836 -0.3160  1.0078  0.0795
 2619DECAN   C526175   6.743   1.402  14.704  0.3169 -0.1195  0.8232
 2619DECAN   C626176   6.763   1.249  14.710  0.3966 -0.1447  0.0333
 2619DECAN   C726177   6.795   1.189  14.572 -0.4415 -0.2105 -0.1382
 2619DECAN   C826178   6.685   1.221  14.470 -0.3725 -0.4967 -0.3026
 2619DECAN   C926179   6.732   1.191  14.326  0.7611 -0.3406  0.0297
 2619DECAN  C1026180   6.819   1.302  14.263  0.5420  0.0402  0.3888
 2620DECAN   C126181   8.156   5.241   6.680 -0.4092  0.2079  0.4306
 2620DECAN   C226182   8.091   5.140   6.777 -0.1401 -0.0589  0.3370
 2620DECAN   C326183   7.949   5.102   6.731  0.0025  0.1627 -0.2909
 2620DECAN   C426184   7.951   4.988   6.627 -0.0805  0.1109 -0.2362
 2620DECAN   C526185   7.812   4.968   6.564 -0.1652 -0.0719  0.0085
 2620DECAN   C626186   7.741   5.097   6.519  0.5220  0.2118 -0.2663
 2620DECAN   C726187   7.605   5.084   6.448  0.4518  0.3146 -0.1512
 2620DECAN   C826188   7.611   5.018   6.309 -0.1688 -0.4025  0.1617
 2620DECAN   C926189   7.478   5.027   6.231 -0.3303 -0.6055  0.4118
 2620DECAN  C1026190   7.486   4.967   6.089 -0.4854  0.1885  0.0615
 2621DECAN   C126191   5.755   7.197  10.019  0.1942  0.4841  0.3818
 2621DECAN   C226192   5.712   7.276   9.894  0.3412 -0.2357 -0.1320
 2621DECAN   C326193   5.724   7.430   9.889 -0.1923 -0.1864  0.0098
 2621DECAN   C426194   5.650   7.508   9.999 -0.2388  0.3922 -0.4257
 2621DECAN   C526195   5.500   7.521   9.970 -0.3983 -0.0888  0.1656
 2621DECAN   C626196   5.430   7.646  10.026 -0.2376 -0.0095  0.1897
 2621DECAN   C726197   5.291   7.676   9.966 -0.3238 -0.6111  0.0885
 2621DECAN   C826198   5.226   7.796  10.036 -0.6444 -0.6466 -0.1464
 2621DECAN   C926199   5.091   7.847   9.982 -0.3958  0.5632  0.3398
 2621DECAN  C1026200   5.015   7.946  10.072  0.0392  0.4885  0.7962
 2622DECAN   C126201   8.008   7.447   5.515  0.1053 -0.0174  0.7336
 2622DECAN   C226202   8.052   7.591   5.480 -0.1411 -0.0039  0.4845
 2622DECAN   C326203   8.054   7.677   5.607 -0.0943 -0.1580  0.5880
 2622DECAN   C426204   8.115   7.818   5.599 -0.4088 -0.0685 -0.3008
 2622DECAN   C526205   8.034   7.932   5.534 -0.0760  0.2360 -0.1889
 2622DECAN   C626206   8.025   7.911   5.382 -0.2724 -0.1527 -0.1266
 2622DECAN   C726207   7.949   8.017   5.299 -0.4821 -0.5208 -0.4067
 2622DECAN   C826208   7.809   8.038   5.360 -0.1120 -0.1334  0.3290
 2622DECAN   C926209   7.699   7.930   5.358  0.2273 -0.4805  0.2848
 2622DECAN  C1026210   7.566   7.980   5.418 -0.2329 -0.9209 -0.3490
 2623DECAN   C126211   2.858   1.925   4.987  0.0308 -0.7095  0.0726
 2623DECAN   C226212   2.992   1.852   5.003  0.6059  0.5065  0.9198
 2623DECAN   C326213   2.980   1.706   5.051 -0.1918  0.4400  0.5301
 2623DECAN   C426214   3.117   1.637   5.056 -0.3353  0.1557  0.5102
 2623DECAN   C526215   3.109   1.492   5.108  0.2288 -0.1189 -0.1415
 2623DECAN   C626216   3.023   1.474   5.235  0.0288  0.4751 -0.1903
 2623DECAN   C726217   3.030   1.328   5.281 -0.0825  0.7560  0.7317
 2623DECAN   C826218   3.162   1.283   5.348  0.3204  0.4242 -0.2651
 2623DECAN   C926219   3.173   1.344   5.489  0.5452 -0.4758  0.1103
 2623DECAN  C1026220   3.222   1.489   5.482  0.3463 -0.4223 -0.2019
 2624DECAN   C126221   5.202   5.604  14.474 -0.0365  0.4033  0.6022
 2624DECAN   C226222   5.343   5.551  14.507  0.0534  0.0804 -0.2765
 2624DECAN   C326223   5.358   5.415  14.576  0.3991 -0.0085 -0.5265
 2624DECAN   C426224   5.324   5.295  14.486 -0.3777 -0.3385  0.1958
 2624DECAN   C526225   5.371   5.160  14.543  0.3368 -0.2842 -0.2513
 2624DECAN   C626226   5.301   5.045  14.467 -0.4293  0.0378 -0.0401
 2624DECAN   C726227   5.340   4.910  14.529 -0.3492  0.0219 -0.1260
 2624DECAN   C826228   5.263   4.795  14.462 -0.0629  0.1268 -0.6387
 2624DECAN   C926229   5.291   4.781  14.311  1.0542  0.3583 -0.4649
 2624DECAN  C1026230   5.242   4.912  14.245 -0.0675  0.4848  0.5875
 2625DECAN   C126231   9.304   8.946   7.686  0.5666 -0.7110 -0.0858
 2625DECAN   C226232   9.378   9.052   7.602  0.3599  0.1814  0.8448
 2625DECAN   C326233   9.295   9.167   7.542  0.3163 -0.4269 -0.2860
 2625DECAN   C426234   9.374   9.258   7.447  0.2309 -0.4315 -0.3624
 2625DECAN   C526235   9.286   9.372   7.392  0.1062 -0.1188  0.4738
 2625DECAN   C626236   9.360   9.471   7.300 -0.6889  0.4298  0.4138
 2625DECAN   C726237   9.458   9.569   7.368 -0.2927  0.0286  0.4212
 2625DECAN   C826238   9.505   9.671   7.263 -0.0691  0.2417  0.7278
 2625DECAN   C926239   9.619   9.767   7.303  0.2170  0.0460  0.3875
 2625DECAN  C1026240   9.631   9.889   7.209  1.3373 -0.3424  0.0126
 2626DECAN   C126241   5.150   7.879  15.088  0.1329  0.3374 -0.0824
 2626DECAN   C226242   5.298   7.912  15.111  0.0674  0.8824 -0.4474
 2626DECAN   C326243   5.367   7.976  14.989  0.0935  0.0077 -0.8957
 2626DECAN   C426244   5.512   8.011  15.028 -0.1449 -0.3481  0.3496
 2626DECAN   C526245   5.600   7.886  15.031 -0.1488 -0.3526  0.3058
 2626DECAN   C626246   5.745   7.899  15.082 -0.2976  0.4946  0.5146
 2626DECAN   C726247   5.815   7.763  15.091 -0.3097  0.4300 -0.3135
 2626DECAN   C826248   5.721   7.643  15.071 -0.2425  0.3105  0.0855
 2626DECAN   C926249   5.776   7.500  15.087  0.4749  0.5964  0.2184
 2626DECAN  C1026250   5.697   7.384  15.023  0.8544  0.2488  0.3701
 2627DECAN   C126251   6.550  10.991  10.888 -0.2568  0.4795 -0.1258
 2627DECAN   C226252   6.538  11.140  10.850 -0.2620  0.5561  0.1732
 2627DECAN   C326253   6.589  11.221  10.971  0.2688  0.0440  0.2917
 2627DECAN   C426254   6.595   0.129  10.948  0.5890 -0.1240 -0.8005
 2627DECAN   C526255   6.689   0.200  11.047 -0.1850 -0.4500  0.1814
 2627DECAN   C626256   6.703   0.352  11.030 -0.2817 -0.3560  0.9002
 2627DECAN   C726257   6.582   0.439  11.070 -0.3071  0.2838 -0.4999
 2627DECAN   C826258   6.626   0.577  11.123  0.7669 -0.2499  0.0280
 2627DECAN   C926259   6.716   0.660  11.029 -0.0398 -0.1279 -0.6518
 2627DECAN  C1026260   6.644   0.776  10.958 -0.2193  0.2294  0.0967
 2628DECAN   C126261   6.039   8.752   3.931  0.1789  0.0502 -0.4074
 2628DECAN   C226262   6.174   8.687   3.896 -0.0280 -0.2607 -0.6382
 2628DECAN   C326263   6.197   8.562   3.983 -0.4049  0.1406  0.0480
 2628DECAN   C426264   6.340   8.521   3.944 -0.3785  0.1924  0.0893
 2628DECAN   C526265   6.391   8.397   4.021  0.4323  0.1568 -0.4964
 2628DECAN   C626266   6.536   8.363   3.979  0.6329  0.3386  0.0393
 2628DECAN   C726267   6.600   8.264   4.078 -0.5673 -0.5264 -0.0229
 2628DECAN   C826268   6.723   8.195   4.018 -0.4840 -0.3900 -0.0089
 2628DECAN   C926269   6.699   8.085   3.913  0.3361 -0.2108 -0.3892
 2628DECAN  C1026270   6.623   7.963   3.967 -0.1473  0.2347 -0.0520
 2629DECAN   C126271  10.302   6.956   9.363 -0.0833 -0.6506  0.0355
 2629DECAN   C226272  10.342   6.929   9.509 -0.0353 -0.5623  0.0383
 2629DECAN   C326273  10.470   6.996   9.562 -0.6160  0.3510  0.3166
 2629DECAN   C426274  10.495   6.999   9.714 -0.3142  0.2211  0.2718
 2629DECAN   C526275  10.630   7.060   9.756 -0.3496  0.3729  0.1668
 2629DECAN   C626276  10.640   7.067   9.910  0.5927 -0.5840  0.1611
 2629DECAN   C726277  10.783   7.097   9.958  0.5698  0.3196 -0.3033
 2629DECAN   C826278  10.800   7.080  10.110  0.2987  0.3478 -0.2687
 2629DECAN   C926279  10.783   6.935  10.159  0.5428  0.2627 -0.4340
 2629DECAN  C1026280  10.820   6.920  10.308 -0.5213 -0.0879 -0.1955
 2630DECAN   C126281   4.071   9.242   4.278 -0.2528  0.3373  0.1614
 2630DECAN   C226282   4.081   9.349   4.167 -0.2703  0.6163  0.4282
 2630DECAN   C326283   4.001   9.299   4.045  0.4707  0.0811  0.1539
 2630DECAN   C426284   4.042   9.159   3.996  0.2431 -0.0374  0.2959
 2630DECAN   C526285   4.092   9.064   4.106  0.0720 -0.5485 -0.0670
 2630DECAN   C626286   4.102   8.914   4.071  0.7253 -0.4808 -0.1794
 2630DECAN   C726287   4.143   8.818   4.183 -0.0342 -0.1990  0.3463
 2630DECAN   C826288   4.143   8.671   4.138 -0.4743 -0.1470  0.1788
 2630DECAN   C926289   4.226   8.591   4.239 -0.5431  0.2223  0.5281
 2630DECAN  C1026290   4.235   8.444   4.195  0.2576  0.1921  0.7853
 2631DECAN   C126291   5.576   3.985   4.040 -0.0103  0.0579 -0.2928
 2631DECAN   C226292   5.443   3.944   3.976 -0.0110 -0.0195 -0.2410
 2631DECAN   C326293   5.386   4.038   3.869 -0.3265  0.1303  0.0552
 2631DECAN   C426294   5.360   4.184   3.912 -0.0333  0.1394  0.2032
 2631DECAN   C526295   5.299   4.282   3.811  0.6240  0.0426 -0.2922
 2631DECAN   C626296   5.286   4.414   3.889  0.1842 -0.0362 -0.2256
 2631DECAN   C726297   5.212   4.525   3.813  0.1410 -0.0913 -0.2641
 2631DECAN   C826298   5.205   4.661   3.885 -0.0336  0.1272 -0.6865
 2631DECAN   C926299   5.112   4.666   4.008  0.4547  0.1870 -0.3146
 2631DECAN  C1026300   4.961   4.653   3.979  0.2508 -0.1767  0.8712
 2632DECAN   C126301   6.098   5.632   8.675  0.2952 -0.2809 -0.3648
 2632DECAN   C226302   6.112   5.557   8.809  0.2589  0.2842 -0.0424
 2632DECAN   C326303   6.076   5.649   8.928 -0.1992  0.3475 -0.2266
 2632DECAN   C426304   6.026   5.583   9.057  0.6835 -0.3427 -0.2238
 2632DECAN   C526305   6.021   5.675   9.181  0.2727  0.3037 -0.7165
 2632DECAN   C626306   6.137   5.774   9.202  0.0322  0.4515 -0.0618
 2632DECAN   C726307   6.127   5.843   9.339 -0.1085  0.0636  0.1244
 2632DECAN   C826308   6.229   5.959   9.338  0.3037 -0.2946  0.1423
 2632DECAN   C926309   6.209   6.058   9.454  0.7495 -0.0246 -0.0130
 2632DECAN  C1026310   6.295   6.186   9.459 -0.0046  0.5031 -0.3574
 2633DECAN   C126311   2.281  10.438  13.099 -0.5865  0.0194 -0.6050
 2633DECAN   C226312   2.428  10.470  13.067 -0.2745 -0.8369 -0.0744
 2633DECAN   C326313   2.516  10.391  13.166 -0.1072  0.0275  0.4807
 2633DECAN   C426314   2.662  10.391  13.119 -0.2628  0.1278 -0.0152
 2633DECAN   C526315   2.746  10.306  13.217 -0.7049 -0.2355  0.0508
 2633DECAN   C626316   2.757  10.385  13.348  0.3238 -0.2033 -0.0509
 2633DECAN   C726317   2.624  10.398  13.425  0.1263  0.9424 -0.5614
 2633DECAN   C826318   2.653  10.470  13.558 -0.1737 -0.5242  0.3161
 2633DECAN   C926319   2.750  10.397  13.652  0.7672 -0.0556 -0.2723
 2633DECAN  C1026320   2.898  10.422  13.616  0.7239  0.6656  0.0272
 2634DECAN   C126321   4.213   5.747   9.897  0.4850  0.7391  0.5063
 2634DECAN   C226322   4.261   5.604   9.932 -0.4726  0.1527 -0.5077
 2634DECAN   C326323   4.403   5.567   9.886 -0.6954 -0.7680 -0.4723
 2634DECAN   C426324   4.421   5.578   9.733  0.0006  0.2581 -0.3286
 2634DECAN   C526325   4.427   5.717   9.666 -0.0579  0.0779 -0.7056
 2634DECAN   C626326   4.420   5.719   9.512 -0.0598  0.1843 -0.7042
 2634DECAN   C726327   4.386   5.866   9.479  0.1931  0.4561  0.2272
 2634DECAN   C826328   4.310   5.888   9.347  0.2976 -0.3596  0.0257
 2634DECAN   C926329   4.384   5.829   9.226 -0.1032  0.2782 -0.5387
 2634DECAN  C1026330   4.517   5.894   9.182 -0.1527  0.0420 -1.0478
 2635DECAN   C126331  11.124   9.612   8.920 -0.1213 -0.6522  0.0422
 2635DECAN   C226332  10.992   9.573   8.990  0.1472 -0.0069  0.9239
 2635DECAN   C326333  10.958   9.666   9.108 -0.3629  0.2561  0.5675
 2635DECAN   C426334  10.822   9.654   9.180 -0.6371  0.2074  0.0440
 2635DECAN   C526335  10.713   9.692   9.077 -0.0245  0.1847 -0.6215
 2635DECAN   C626336  10.730   9.834   9.020  0.1701  0.4301  0.0437
 2635DECAN   C726337  10.631   9.903   8.924 -0.2303 -0.0723  0.0885
 2635DECAN   C826338  10.651  10.053   8.893  0.0894 -0.1111  0.1045
 2635DECAN   C926339  10.617  10.143   9.013  0.2595  0.5451 -0.3388
 2635DECAN  C1026340  10.581  10.292   8.994 -0.6903  0.3635  0.0353
 2636DECAN   C126341   3.816   3.022  10.264  0.0351 -0.2550 -0.0531
 2636DECAN   C226342   3.703   2.981  10.359  0.2688  0.0371  0.3545
 2636DECAN   C326343   3.730   2.888  10.479  0.5360  0.4853  0.6414
 2636DECAN   C426344   3.614   2.849  10.573 -0.0760  0.3920 -0.1475
 2636DECAN   C526345   3.571   2.962  10.668 -0.1422  0.4432 -0.2394
 2636DECAN   C626346   3.429   2.957  10.726  0.2521 -0.2081  0.6808
 2636DECAN   C726347   3.419   3.040  10.855 -0.0040  0.0966  0.4654
 2636DECAN   C826348   3.277   3.097  10.873  0.0176  0.2861  0.0526
 2636DECAN   C926349   3.253   3.166  11.008  0.5391  0.1531  0.2158
 2636DECAN  C1026350   3.249   3.054  11.114 -0.1505 -0.3063 -0.2858
 2637DECAN   C126351   7.143   3.876  11.894 -0.2516  0.0100  0.6875
 2637DECAN   C226352   7.011   3.950  11.869 -0.4378 -0.3514  0.5991
 2637DECAN   C326353   7.004   4.092  11.928 -0.1160  0.1346 -0.5001
 2637DECAN   C426354   6.884   4.171  11.872 -0.5490 -0.2603 -0.1399
 2637DECAN   C526355   6.821   4.286  11.952 -0.0985  0.0874 -0.2790
 2637DECAN   C626356   6.918   4.395  12.001  0.2733  0.0197 -0.8637
 2637DECAN   C726357   7.003   4.341  12.117 -0.5073 -0.0121 -0.3050
 2637DECAN   C826358   6.926   4.322  12.249  0.1523  0.3804  0.1391
 2637DECAN   C926359   7.013   4.252  12.356  0.2887  0.1500 -0.1195
 2637DECAN  C1026360   6.951   4.264  12.497  0.0282 -0.1305 -0.2108
 2638DECAN   C126361   4.022   8.180  13.214  0.1141 -0.1716  0.4026
 2638DECAN   C226362   3.887   8.128  13.267  0.0114 -0.2679  0.0479
 2638DECAN   C326363   3.792   8.102  13.149 -0.4938 -0.3839  0.4759
 2638DECAN   C426364   3.643   8.081  13.182 -0.7008  0.2727 -0.0148
 2638DECAN   C526365   3.609   7.936  13.221  0.0223  0.0736 -0.1021
 2638DECAN   C626366   3.617   7.837  13.103 -0.7563 -0.2000  0.0695
 2638DECAN   C726367   3.607   7.697  13.166  0.0326 -0.2016  0.2016
 2638DECAN   C826368   3.572   7.591  13.059  0.1483 -0.1503  0.1122
 2638DECAN   C926369   3.604   7.445  13.100 -0.0419 -0.1163  0.3857
 2638DECAN  C1026370   3.750   7.399  13.086 -0.1234 -0.3570  0.3269
 2639DECAN   C126371   7.057   9.946  11.191 -0.2133  0.1904  0.4632
 2639DECAN   C226372   7.171   9.844  11.207 -0.0456  0.2653 -0.2278
 2639DECAN   C326373   7.154   9.719  11.118  0.0808  0.2735 -0.2643
 2639DECAN   C426374   7.141   9.743  10.966 -0.3782  0.0289 -0.2653
 2639DECAN   C526375   7.245   9.849  10.927  0.2055 -0.3388  0.2767
 2639DECAN   C626376   7.245   9.874  10.775  0.2908 -0.1854  0.3013
 2639DECAN   C726377   7.364   9.946  10.709 -0.2032  0.6567  0.3117
 2639DECAN   C826378   7.345   9.978  10.559 -0.6160 -0.4720  0.1148
 2639DECAN   C926379   7.238  10.088  10.543  0.2367  0.4861  0.8717
 2639DECAN  C1026380   7.104  10.044  10.605 -0.0711 -0.2587 -0.2881
 2640DECAN   C126381   8.299   2.487  10.261 -0.3508 -0.1501 -0.7265
 2640DECAN   C226382   8.246   2.599  10.352  0.0942 -0.1145 -0.5100
 2640DECAN   C326383   8.297   2.740  10.319  0.7990 -0.2714 -0.1080
 2640DECAN   C426384   8.244   2.861  10.398  0.6947 -0.1304 -0.3912
 2640DECAN   C526385   8.346   2.977  10.402  0.5516 -0.0214  0.3010
 2640DECAN   C626386   8.293   3.102  10.475  0.1053 -0.0700  0.0695
 2640DECAN   C726387   8.420   3.174  10.525  0.3049 -0.3280 -0.0623
 2640DECAN   C826388   8.523   3.087  10.599 -0.1032 -0.2631  0.5917
 2640DECAN   C926389   8.641   3.167  10.658  0.3038 -0.2625 -0.2221
 2640DECAN  C1026390   8.754   3.085  10.723 -0.6314 -0.9691  0.5276
 2641DECAN   C126391   2.298   3.623  11.331 -0.7310  0.2815 -0.1246
 2641DECAN   C226392   2.400   3.730  11.287 -0.5892  0.1537 -0.1057
 2641DECAN   C326393   2.521   3.731  11.383 -0.1872 -0.4009 -0.6004
 2641DECAN   C426394   2.481   3.731  11.531 -0.2429  0.1701 -0.6135
 2641DECAN   C526395   2.598   3.730  11.631 -0.6634 -0.3267 -0.1188
 2641DECAN   C626396   2.693   3.609  11.622 -0.1356  0.0922 -0.1806
 2641DECAN   C726397   2.823   3.641  11.699 -0.1814 -0.0456 -0.0462
 2641DECAN   C826398   2.889   3.769  11.644 -0.2095  0.1893  0.4563
 2641DECAN   C926399   2.991   3.837  11.736  0.2236  0.3046 -0.1020
 2641DECAN  C1026400   3.062   3.941  11.647 -0.1790  0.1141 -0.6514
 2642DECAN   C126401   2.536   8.631   4.952  0.1193  0.0046  0.0564
 2642DECAN   C226402   2.640   8.700   4.863 -0.2551  0.2978 -0.1558
 2642DECAN   C326403   2.724   8.801   4.943  0.0551  0.0215 -0.1284
 2642DECAN   C426404   2.813   8.896   4.861 -0.4392  0.2265 -0.4310
 2642DECAN   C526405   2.881   9.015   4.932  0.2722 -0.1434 -0.4915
 2642DECAN   C626406   2.939   8.950   5.059 -0.5461 -0.1076 -0.0950
 2642DECAN   C726407   3.075   8.883   5.031 -0.5763 -0.1113 -0.2295
 2642DECAN   C826408   3.074   8.731   5.053 -0.8582 -0.0225  0.4068
 2642DECAN   C926409   3.037   8.677   5.192  0.1190  0.0610  0.7049
 2642DECAN  C1026410   3.078   8.528   5.200  0.5046  0.1071 -0.2847
 2643DECAN   C126411   2.852   2.459   7.405 -0.1102 -0.1898  0.7284
 2643DECAN   C226412   2.956   2.570   7.426 -0.5047  0.2644  0.3244
 2643DECAN   C326413   2.942   2.694   7.336  0.0070 -0.1100 -0.2792
 2643DECAN   C426414   2.950   2.660   7.186 -0.0789 -0.2450 -0.2532
 2643DECAN   C526415   2.971   2.772   7.083 -0.0882  0.1328  0.1513
 2643DECAN   C626416   2.983   2.708   6.943  0.4216  0.1977  0.1645
 2643DECAN   C726417   2.977   2.804   6.823  0.0142  0.1567  0.1497
 2643DECAN   C826418   2.986   2.724   6.692 -0.6747 -0.0855  0.2485
 2643DECAN   C926419   2.964   2.807   6.564 -0.3874  0.4363  0.5342
 2643DECAN  C1026420   3.056   2.929   6.549  0.4053 -0.1427  0.5995
 2644DECAN   C126421   8.352   6.375   6.957  0.1358  0.4043 -0.3347
 2644DECAN   C226422   8.493   6.341   6.904 -0.0519 -0.2407 -0.4301
 2644DECAN   C326423   8.569   6.247   7.000  0.0276  0.2477 -0.0108
 2644DECAN   C426424   8.693   6.166   6.958 -0.0853 -0.2455  0.6010
 2644DECAN   C526425   8.682   6.100   6.818  0.4298 -0.2160  0.5471
 2644DECAN   C626426   8.813   6.029   6.780  0.3925  0.1603 -0.3005
 2644DECAN   C726427   8.802   5.937   6.657 -0.4236  0.5105 -0.4919
 2644DECAN   C826428   8.769   6.013   6.527 -0.0006  0.4544 -0.6319
 2644DECAN   C926429   8.752   5.930   6.398 -0.0124 -0.2323 -0.1942
 2644DECAN  C1026430   8.661   5.983   6.286 -0.0068 -0.2275 -0.1967
 2645DECAN   C126431   7.405  11.142  10.386  0.1788 -0.4168  0.8039
 2645DECAN   C226432   7.421   0.036  10.452 -0.7663  0.0402  0.1121
 2645DECAN   C326433   7.392   0.158  10.364  0.4377  0.1308 -0.1783
 2645DECAN   C426434   7.513   0.197  10.277  0.7638  0.2062  0.3059
 2645DECAN   C526435   7.479   0.276  10.149 -0.1665 -0.4161  0.1677
 2645DECAN   C626436   7.404   0.404  10.189  0.2261 -0.1590  0.0737
 2645DECAN   C726437   7.373   0.503  10.075  0.3780 -0.1517  0.0383
 2645DECAN   C826438   7.316   0.639  10.119  0.1279 -0.3542  0.3515
 2645DECAN   C926439   7.422   0.735  10.179 -0.5533  0.5447  0.1340
 2645DECAN  C1026440   7.355   0.835  10.274 -0.3583  0.5446  0.2693
 2646DECAN   C126441  10.156   2.976  11.882  0.1378  0.8458  0.2517
 2646DECAN   C226442  10.050   3.082  11.847 -0.4949  0.0846 -0.1675
 2646DECAN   C326443   9.930   3.088  11.943 -0.6958 -0.3943 -0.3848
 2646DECAN   C426444   9.972   3.139  12.082 -0.3107  0.0851 -0.6775
 2646DECAN   C526445  10.054   3.268  12.105 -0.3363 -0.0761  0.3659
 2646DECAN   C626446   9.960   3.384  12.068 -0.2284  0.0952  0.6305
 2646DECAN   C726447  10.001   3.533  12.066  0.3829 -0.0733  0.6097
 2646DECAN   C826448   9.878   3.621  12.042  0.2430 -0.4166  0.0206
 2646DECAN   C926449   9.794   3.586  11.918  0.0777 -0.2868  0.0951
 2646DECAN  C1026450   9.743   3.441  11.918  0.2456 -0.3453  0.2273
 2647DECAN   C126451   7.623   5.912   4.365 -0.3584 -0.2015 -0.1894
 2647DECAN   C226452   7.590   5.762   4.379  0.1718 -0.2659  0.3827
 2647DECAN   C326453   7.440   5.734   4.394  0.0532  0.2595  0.1852
 2647DECAN   C426454   7.359   5.779   4.270 -0.3096 -0.2332  0.2422
 2647DECAN   C526455   7.338   5.930   4.254  0.5871 -0.1183  0.0997
 2647DECAN   C626456   7.259   5.972   4.128  0.6939  0.1511  0.1214
 2647DECAN   C726457   7.349   5.958   4.004  0.1177 -0.4337 -0.2373
 2647DECAN   C826458   7.302   6.007   3.867 -0.1253 -0.1122 -0.0399
 2647DECAN   C926459   7.291   6.161   3.865  0.3741 -0.0640  0.7157
 2647DECAN  C1026460   7.169   6.210   3.945  0.1691  0.2631  0.2057
 2648DECAN   C126461   0.816   2.857  10.302 -0.1357  0.8839  0.1680
 2648DECAN   C226462   0.966   2.830  10.321 -0.2293 -0.1336 -0.4507
 2648DECAN   C326463   0.995   2.694  10.386 -0.3709  0.2260  0.3851
 2648DECAN   C426464   1.145   2.675  10.416 -0.3326  0.1140  0.1262
 2648DECAN   C526465   1.178   2.537  10.475 -0.3789 -0.1235 -0.3908
 2648DECAN   C626466   1.322   2.503  10.520 -0.6949  0.1831  0.8963
 2648DECAN   C726467   1.342   2.361  10.578  0.2167 -0.0817 -0.0392
 2648DECAN   C826468   1.467   2.313  10.653  0.3529 -0.3058 -0.4073
 2648DECAN   C926469   1.593   2.300  10.565  0.1608 -0.3248 -0.6793
 2648DECAN  C1026470   1.733   2.290  10.628  0.0277  0.0032 -0.3290
 2649DECAN   C126471   5.377   9.498   7.271 -0.5964 -0.3764 -0.4042
 2649DECAN   C226472   5.244   9.500   7.349 -0.1979  0.5838  0.2615
 2649DECAN   C326473   5.256   9.573   7.484  0.4535 -0.3905  0.7504
 2649DECAN   C426474   5.137   9.554   7.580  0.0995 -0.7414  0.2409
 2649DECAN   C526475   5.151   9.642   7.705 -0.4174  0.0250 -0.2284
 2649DECAN   C626476   5.187   9.787   7.671 -0.0429 -0.0036  0.0353
 2649DECAN   C726477   5.064   9.850   7.602  0.0571 -0.3860 -0.4972
 2649DECAN   C826478   5.077   9.998   7.559  0.0337 -0.2014  0.1185
 2649DECAN   C926479   5.122  10.086   7.677 -0.3344  0.0424  0.0780
 2649DECAN  C1026480   5.167  10.230   7.649  0.0743 -0.0470  0.2595
 2650DECAN   C126481   2.936   1.007  12.057  0.6191 -0.4420  0.1370
 2650DECAN   C226482   3.010   1.126  12.121 -0.7459  0.1624  0.6236
 2650DECAN   C326483   2.928   1.252  12.086 -0.1554  0.3561 -0.0706
 2650DECAN   C426484   2.993   1.388  12.122  0.6127  0.0297 -0.1920
 2650DECAN   C526485   2.924   1.514  12.067 -0.5571 -0.4861  0.0607
 2650DECAN   C626486   2.876   1.509  11.921 -0.3734  0.1684 -0.0282
 2650DECAN   C726487   2.845   1.641  11.848  0.3815  0.3094 -0.0942
 2650DECAN   C826488   2.958   1.683  11.753  0.1496  0.4120 -0.3240
 2650DECAN   C926489   3.081   1.734  11.831  0.2164 -0.2610  0.0213
 2650DECAN  C1026490   3.043   1.837  11.939 -0.2488 -0.0283 -0.3570
 2651DECAN   C126491   4.359  10.753   8.106  0.0049  0.3847 -0.2633
 2651DECAN   C226492   4.409  10.614   8.061  0.2055  0.2732  0.3020
 2651DECAN   C326493   4.562  10.619   8.074  0.2173  0.3163  0.1518
 2651DECAN   C426494   4.645  10.494   8.040  0.0544  0.1250  0.4608
 2651DECAN   C526495   4.617  10.353   8.097 -0.2159  0.1004  0.2734
 2651DECAN   C626496   4.478  10.293   8.073  0.1479 -0.4154 -0.5505
 2651DECAN   C726497   4.461  10.158   8.145 -0.1061  0.1034  0.3777
 2651DECAN   C826498   4.316  10.105   8.138 -0.2505  0.5491 -0.1126
 2651DECAN   C926499   4.294   9.973   8.214  0.4612  0.3716 -0.2018
 2651DECAN  C1026500   4.143   9.966   8.247  0.4916 -0.0708 -0.1419
 2652DECAN   C126501   9.122   4.374   3.949 -0.1632  0.0329  0.4058
 2652DECAN   C226502   9.236   4.306   4.029 -0.0448 -0.2983 -0.0402
 2652DECAN   C326503   9.207   4.157   4.056 -0.9591 -0.1160  0.0164
 2652DECAN   C426504   9.283   4.105   4.179 -0.0735  0.1730 -0.3996
 2652DECAN   C526505   9.434   4.132   4.174  0.0666 -0.5413 -0.1949
 2652DECAN   C626506   9.494   4.111   4.034  0.0516 -0.7900 -0.1637
 2652DECAN   C726507   9.640   4.158   4.054 -0.3862  0.2406  0.6937
 2652DECAN   C826508   9.717   4.044   4.123 -0.3204 -0.1771 -0.0604
 2652DECAN   C926509   9.674   4.010   4.266 -0.1926  0.0509  0.0325
 2652DECAN  C1026510   9.763   3.906   4.337  0.1269  0.0782 -0.3304
 2653DECAN   C126511   2.594   6.438   4.671 -0.2062  0.5341  0.3420
 2653DECAN   C226512   2.717   6.359   4.720 -0.1636  0.4921  0.1721
 2653DECAN   C326513   2.679   6.313   4.863 -0.3903 -0.2672 -0.1253
 2653DECAN   C426514   2.797   6.255   4.943 -0.4672 -0.4236 -0.1250
 2653DECAN   C526515   2.773   6.191   5.081 -0.1476  0.5468  0.3869
 2653DECAN   C626516   2.891   6.115   5.144 -0.4040 -0.2472 -0.0701
 2653DECAN   C726517   2.858   6.050   5.279  0.7134 -0.9337 -0.1143
 2653DECAN   C826518   2.746   5.945   5.275 -0.1341 -0.0641  0.2472
 2653DECAN   C926519   2.700   5.895   5.414 -0.2369 -0.6326  0.0111
 2653DECAN  C1026520   2.816   5.832   5.494 -0.0912  0.1176  0.3976
 2654DECAN   C126521   1.468   7.850   8.200  0.2989  0.3891  0.1169
 2654DECAN   C226522   1.355   7.952   8.216  0.4097  0.4915  0.2508
 2654DECAN   C326523   1.393   8.099   8.245  0.1895  0.5636  0.1797
 2654DECAN   C426524   1.493   8.164   8.148  0.0079  0.6749  0.0668
 2654DECAN   C526525   1.546   8.304   8.184  0.2214  0.6833 -0.2711
 2654DECAN   C626526   1.439   8.415   8.188 -0.2400  0.2222  0.3789
 2654DECAN   C726527   1.379   8.461   8.054 -0.1344  0.4518  0.4111
 2654DECAN   C826528   1.476   8.519   7.949 -0.2491 -0.5526 -0.2658
 2654DECAN   C926529   1.409   8.598   7.836 -0.4482 -0.3423 -0.0026
 2654DECAN  C1026530   1.329   8.713   7.900 -0.0282  0.1113 -0.2902
 2655DECAN   C126531   4.478   5.533  10.543  0.8536  0.0696  0.3297
 2655DECAN   C226532   4.474   5.387  10.495 -0.1133  0.1712  0.0871
 2655DECAN   C326533   4.588   5.306  10.559 -0.2408 -0.2450 -0.2118
 2655DECAN   C426534   4.580   5.152  10.553 -0.0518 -0.2551 -0.2021
 2655DECAN   C526535   4.592   5.094  10.411 -0.1148  0.1643 -0.3785
 2655DECAN   C626536   4.597   4.941  10.415 -0.6460  0.1601  0.1513
 2655DECAN   C726537   4.471   4.862  10.456 -0.5604 -0.2273 -0.3166
 2655DECAN   C826538   4.394   4.912  10.580 -0.0543 -0.2767  0.0187
 2655DECAN   C926539   4.256   4.848  10.603 -0.1329 -0.1730 -0.1572
 2655DECAN  C1026540   4.189   4.883  10.737 -0.2289  0.3953 -0.3544
 2656DECAN   C126541   4.302  10.999   4.867 -0.7517  0.6671 -0.1094
 2656DECAN   C226542   4.353  10.885   4.777  0.7485  0.6931  0.6843
 2656DECAN   C326543   4.431  10.784   4.863  0.1642 -0.4056 -0.0542
 2656DECAN   C426544   4.573  10.832   4.899  0.1180  0.0047 -0.4170
 2656DECAN   C526545   4.635  10.729   4.996  0.0132 -0.1457 -0.5096
 2656DECAN   C626546   4.774  10.753   5.058 -0.3219  0.6149 -0.0329
 2656DECAN   C726547   4.801  10.889   5.124  0.1520  0.5468 -0.0860
 2656DECAN   C826548   4.749  10.900   5.268 -0.1967  0.3369 -0.1945
 2656DECAN   C926549   4.801  11.025   5.342  0.2508  0.1552 -0.1986
 2656DECAN  C1026550   4.808  11.151   5.254  0.3058  0.2000 -0.1283
 2657DECAN   C126551   1.301   6.071   9.323 -0.6801  0.6776 -0.1944
 2657DECAN   C226552   1.271   6.222   9.325  0.2481  0.8624 -0.1789
 2657DECAN   C326553   1.161   6.250   9.429 -0.2136  0.1090 -0.4566
 2657DECAN   C426554   1.188   6.212   9.576 -0.3486  0.6344 -0.2959
 2657DECAN   C526555   1.115   6.309   9.671 -0.4717  0.2668 -0.0126
 2657DECAN   C626556   1.137   6.303   9.824 -0.0238  0.4005 -0.0675
 2657DECAN   C726557   1.100   6.162   9.875  0.4496  0.3452  0.1244
 2657DECAN   C826558   1.194   6.047   9.836  0.1853  0.2703 -0.3054
 2657DECAN   C926559   1.163   5.904   9.885 -0.2781  0.2397 -0.6870
 2657DECAN  C1026560   1.258   5.806   9.814  0.3368  0.3040  0.0400
 2658DECAN   C126561   7.266  10.486  13.382  0.0298  0.3181 -0.0941
 2658DECAN   C226562   7.378  10.451  13.482  0.1242 -0.2487 -0.3932
 2658DECAN   C326563   7.514  10.425  13.415  0.3735  0.4778 -0.1810
 2658DECAN   C426564   7.625  10.388  13.515  0.1778  0.5519  0.0640
 2658DECAN   C526565   7.766  10.376  13.455 -0.1476  0.1830 -0.6316
 2658DECAN   C626566   7.872  10.327  13.556 -0.6456 -0.1888 -0.2844
 2658DECAN   C726567   7.843  10.392  13.692  0.2107 -1.2716  0.4275
 2658DECAN   C826568   7.932  10.337  13.805  0.1487 -1.0180  0.6025
 2658DECAN   C926569   7.904  10.396  13.944  0.5829  0.1379  0.2068
 2658DECAN  C1026570   7.913  10.550  13.943  0.2185  0.1595 -0.5117
 2659DECAN   C126571   5.557   2.919  10.576 -0.2338  0.0606  0.1521
 2659DECAN   C226572   5.506   3.019  10.471  0.8472  0.2776 -0.1786
 2659DECAN   C326573   5.589   3.041  10.343  0.7641  0.0206 -0.2777
 2659DECAN   C426574   5.614   2.919  10.253  0.0842 -0.2162 -0.1550
 2659DECAN   C526575   5.695   2.942  10.124  0.0550  0.4352 -0.0617
 2659DECAN   C626576   5.711   2.809  10.047  0.3486  0.3752  0.1016
 2659DECAN   C726577   5.829   2.825   9.949  0.0718  0.1366 -0.2739
 2659DECAN   C826578   5.881   2.683   9.920 -0.5291 -0.0986 -0.2082
 2659DECAN   C926579   5.994   2.686   9.816 -0.1716 -0.0653  0.1802
 2659DECAN  C1026580   6.017   2.545   9.759  0.3241  0.1400 -0.1327
 2660DECAN   C126581  11.089   1.117  11.259 -0.2422 -0.2211 -0.3594
 2660DECAN   C226582  11.039   1.172  11.124  0.1920  0.3006 -0.3116
 2660DECAN   C326583  11.042   1.074  11.006  0.0078  0.0439 -0.1064
 2660DECAN   C426584  10.975   1.130  10.879  0.0252 -0.0245 -0.1462
 2660DECAN   C526585  10.954   1.022  10.772 -0.1981 -0.4716  0.3453
 2660DECAN   C626586  10.916   1.072  10.632  0.1576 -0.4674  0.2519
 2660DECAN   C726587  10.879   0.960  10.533  0.2360 -0.4004  0.1457
 2660DECAN   C826588  10.736   0.904  10.548  0.0579  0.0793  0.2692
 2660DECAN   C926589  10.699   0.776  10.472 -0.0216  0.2810 -0.0331
 2660DECAN  C1026590  10.572   0.713  10.533  0.2463 -0.3293 -0.0912
 2661DECAN   C126591   3.010   0.178  13.491  0.5548  0.1724  0.1637
 2661DECAN   C226592   3.113   0.107  13.581 -0.1834 -0.5159  0.4794
 2661DECAN   C326593   3.197   0.193  13.677  0.2790 -0.1646 -0.2335
 2661DECAN   C426594   3.116   0.284  13.772  0.3156 -0.1895 -0.1791
 2661DECAN   C526595   2.992   0.213  13.828 -0.0313 -0.0564 -0.7628
 2661DECAN   C626596   3.010   0.083  13.910  0.1574  0.3824 -0.1006
 2661DECAN   C726597   3.099   0.097  14.034  0.2201 -0.5237 -0.0361
 2661DECAN   C826598   3.139  11.200  14.080  0.4677 -0.6555 -0.6495
 2661DECAN   C926599   3.028  11.114  14.145  0.5717 -0.1821  0.1673
 2661DECAN  C1026600   3.083  10.979  14.196 -0.1808 -0.6000 -0.1140
 2662DECAN   C126601   2.865   7.899   8.255  0.3926  0.1911 -0.6399
 2662DECAN   C226602   2.812   7.879   8.112  0.4793  0.1062 -0.6601
 2662DECAN   C326603   2.678   7.951   8.094  0.1935 -0.3358 -0.3150
 2662DECAN   C426604   2.619   7.965   7.952  0.0290  0.4793 -0.1751
 2662DECAN   C526605   2.494   8.053   7.937 -0.2555  0.0795 -0.1725
 2662DECAN   C626606   2.459   8.084   7.791  0.0183 -0.6402 -0.3962
 2662DECAN   C726607   2.319   8.149   7.791  0.1328 -0.3905  0.1509
 2662DECAN   C826608   2.219   8.042   7.837  0.2760 -0.4504  0.3239
 2662DECAN   C926609   2.160   7.955   7.724 -0.1624 -0.2701  0.4107
 2662DECAN  C1026610   2.080   8.029   7.616 -0.4321 -0.4675  0.4737
 2663DECAN   C126611   7.755   6.866   5.873 -0.6940 -0.1015 -0.0254
 2663DECAN   C226612   7.657   6.755   5.830 -0.0912 -0.6508 -0.0135
 2663DECAN   C326613   7.533   6.726   5.916 -0.0100  0.0484  0.3469
 2663DECAN   C426614   7.439   6.848   5.907 -0.0513  0.0198  0.3896
 2663DECAN   C526615   7.312   6.835   5.994 -0.3774 -0.4863 -0.1501
 2663DECAN   C626616   7.347   6.839   6.144 -0.0149 -0.3702 -0.2350
 2663DECAN   C726617   7.235   6.865   6.246 -0.1556 -0.5092 -0.3534
 2663DECAN   C826618   7.263   6.826   6.392 -0.1085  0.6039 -0.0538
 2663DECAN   C926619   7.251   6.675   6.420 -0.5204  0.6301 -0.0775
 2663DECAN  C1026620   7.114   6.620   6.462 -0.2161  0.2313  0.4129
 2664DECAN   C126621   9.727   8.199   8.093 -0.2000 -0.5465 -0.3209
 2664DECAN   C226622   9.646   8.080   8.149 -0.4614 -0.3146 -0.1996
 2664DECAN   C326623   9.579   8.112   8.284  0.4505  0.5237  0.0690
 2664DECAN   C426624   9.500   8.244   8.283 -0.5410 -0.0554 -0.1407
 2664DECAN   C526625   9.403   8.256   8.402 -0.4304 -0.6467  0.0102
 2664DECAN   C626626   9.282   8.344   8.368 -0.3354 -0.4228  0.2490
 2664DECAN   C726627   9.168   8.272   8.294 -0.2416 -0.2527 -0.0665
 2664DECAN   C826628   9.037   8.350   8.273 -0.1712 -0.0855  0.1227
 2664DECAN   C926629   8.979   8.395   8.409  0.2320  0.3348  0.1544
 2664DECAN  C1026630   8.859   8.486   8.378  0.4232  0.4595 -0.2264
 2665DECAN   C126631   2.475   3.499   7.820  0.0082 -0.3908  0.3093
 2665DECAN   C226632   2.414   3.445   7.689  0.5453 -0.2549  0.0000
 2665DECAN   C326633   2.489   3.468   7.556 -0.0266 -0.3805 -0.3495
 2665DECAN   C426634   2.611   3.374   7.549 -0.3167 -0.8141  0.2152
 2665DECAN   C526635   2.717   3.401   7.658  0.0259 -0.4333 -0.2062
 2665DECAN   C626636   2.831   3.298   7.661  0.0949 -0.3349  0.6989
 2665DECAN   C726637   2.941   3.326   7.765  0.0282  0.1205  0.6509
 2665DECAN   C826638   3.056   3.224   7.774  0.1918  0.2619  0.1628
 2665DECAN   C926639   3.172   3.269   7.865  0.0768  0.7814  0.0572
 2665DECAN  C1026640   3.301   3.185   7.864 -0.2955  0.2047 -0.2371
 2666DECAN   C126641   7.457   6.415   9.956  0.0241  0.7493  0.3320
 2666DECAN   C226642   7.535   6.452  10.084 -0.0242 -0.0951  0.6063
 2666DECAN   C326643   7.543   6.324  10.169 -0.6003 -0.0340  0.7618
 2666DECAN   C426644   7.620   6.345  10.301  0.2910  0.5679  0.1573
 2666DECAN   C526645   7.533   6.427  10.399  0.2667  0.6003  0.1089
 2666DECAN   C626646   7.589   6.447  10.542 -0.2784 -0.2946  0.4555
 2666DECAN   C726647   7.503   6.506  10.655 -0.1655  0.0739  0.3465
 2666DECAN   C826648   7.458   6.649  10.617  0.1676  0.0610 -0.1083
 2666DECAN   C926649   7.364   6.643  10.495  0.1693 -0.3218 -0.0932
 2666DECAN  C1026650   7.320   6.782  10.446 -0.1656 -0.5700 -0.5019
 2667DECAN   C126651   8.307   7.308  13.755  0.4954  0.2299  0.0344
 2667DECAN   C226652   8.371   7.200  13.666 -0.0909  0.0680 -0.1936
 2667DECAN   C326653   8.422   7.072  13.734 -0.7776 -0.2538 -0.2703
 2667DECAN   C426654   8.475   6.969  13.633  0.1676 -0.0470 -0.0023
 2667DECAN   C526655   8.381   6.943  13.514 -0.3502  0.9286  0.1815
 2667DECAN   C626656   8.452   6.938  13.378 -0.1024 -0.0261  0.3344
 2667DECAN   C726657   8.359   6.883  13.268  0.2496  0.3752 -0.1689
 2667DECAN   C826658   8.436   6.850  13.139  0.2640 -0.3029  0.0115
 2667DECAN   C926659   8.333   6.804  13.034 -0.0955  0.0147  0.2252
 2667DECAN  C1026660   8.376   6.818  12.887  0.4767 -0.1393  0.3767
 2668DECAN   C126661   2.081   1.123   9.599  0.3362 -0.6989  0.1248
 2668DECAN   C226662   1.927   1.118   9.601  0.3039  0.3615  0.7115
 2668DECAN   C326663   1.870   1.225   9.506 -0.1001  0.2864  0.8649
 2668DECAN   C426664   1.717   1.228   9.517 -0.1911 -0.0283 -0.2009
 2668DECAN   C526665   1.657   1.344   9.435 -0.7349 -0.1478  0.0225
 2668DECAN   C626666   1.748   1.369   9.313 -0.1584 -0.6846  0.3325
 2668DECAN   C726667   1.687   1.453   9.199 -0.1181 -0.4341  0.4945
 2668DECAN   C826668   1.745   1.595   9.187 -0.7506 -0.2033  0.1319
 2668DECAN   C926669   1.702   1.672   9.061 -0.1016 -0.0306  0.0065
 2668DECAN  C1026670   1.549   1.678   9.037 -0.0881  1.0002  0.1057
 2669DECAN   C126671   9.363   0.071   7.903 -0.3311  0.2862 -0.2536
 2669DECAN   C226672   9.389  11.189   7.987 -1.0524  0.1869 -0.1738
 2669DECAN   C326673   9.326  11.060   7.932 -0.3569 -0.1849 -0.1150
 2669DECAN   C426674   9.370  10.942   8.020  0.0667 -0.3371 -0.5313
 2669DECAN   C526675   9.281  10.816   8.013  0.0778 -0.4084  0.4559
 2669DECAN   C626676   9.323  10.716   8.123  0.5284 -0.0898  0.5791
 2669DECAN   C726677   9.235  10.590   8.117  0.3530  0.0313  0.5924
 2669DECAN   C826678   9.233  10.512   8.250  0.0025  0.1681  0.6689
 2669DECAN   C926679   9.118  10.412   8.233  0.2271  0.0216 -0.0473
 2669DECAN  C1026680   9.029  10.401   8.359  0.0775  0.1782 -0.1385
 2670DECAN   C126681   8.064  10.902  10.659  0.1053  0.2978  0.1675
 2670DECAN   C226682   7.979  11.022  10.614 -0.3805 -0.2139 -0.2965
 2670DECAN   C326683   7.855  11.039  10.703 -0.4917 -0.3039 -0.4337
 2670DECAN   C426684   7.760  11.145  10.643 -0.7307 -0.3918 -0.2147
 2670DECAN   C526685   7.865   0.008  10.607 -0.4216 -0.5050  0.3370
 2670DECAN   C626686   7.805   0.135  10.545 -1.0752 -0.8607  0.2366
 2670DECAN   C726687   7.726   0.225  10.642  0.0218 -0.1532  0.4901
 2670DECAN   C826688   7.788   0.344  10.717  0.1335 -0.1424  0.3801
 2670DECAN   C926689   7.883   0.294  10.827  0.2291 -0.0500  0.3408
 2670DECAN  C1026690   7.938   0.403  10.921  0.0436  0.2924  0.0567
 2671DECAN   C126691   5.436   5.901   4.344 -0.3150 -0.0682  0.0365
 2671DECAN   C226692   5.360   5.967   4.227 -0.0954  0.4266  0.1709
 2671DECAN   C326693   5.367   5.895   4.091 -0.0003 -0.7157  0.7666
 2671DECAN   C426694   5.320   5.748   4.089 -0.4170 -0.5748 -0.1153
 2671DECAN   C526695   5.351   5.674   3.957  0.8904 -0.2875  0.0075
 2671DECAN   C626696   5.314   5.525   3.967 -0.6036  0.0660  0.0155
 2671DECAN   C726697   5.354   5.438   3.846 -0.5600 -0.2690  0.2681
 2671DECAN   C826698   5.323   5.288   3.856 -0.4179 -0.3115  0.0741
 2671DECAN   C926699   5.400   5.245   3.983 -0.4326 -0.8832 -0.1052
 2671DECAN  C1026700   5.549   5.212   3.959 -0.2004  0.0493 -0.0111
 2672DECAN   C126701   2.005   3.126  13.302  0.2534 -0.5690  0.4990
 2672DECAN   C226702   1.863   3.088  13.255  0.3382 -0.4698  0.1582
 2672DECAN   C326703   1.850   2.949  13.191 -0.4918 -0.1772 -0.3294
 2672DECAN   C426704   1.901   2.827  13.271  0.2861  0.3481 -0.0081
 2672DECAN   C526705   1.896   2.702  13.181 -0.3545  0.4541 -0.1259
 2672DECAN   C626706   2.035   2.654  13.137 -0.2080  0.1681  0.6257
 2672DECAN   C726707   2.136   2.624  13.249  0.2467  0.0210  0.1815
 2672DECAN   C826708   2.190   2.747  13.325 -0.1484  0.4176 -0.1773
 2672DECAN   C926709   2.241   2.718  13.467  0.0615 -0.3010 -0.3957
 2672DECAN  C1026710   2.137   2.664  13.567  0.1267  0.1740 -0.0672
 2673DECAN   C126711   8.926   8.784  11.883 -0.3256 -0.1434 -0.4231
 2673DECAN   C226712   8.787   8.802  11.819 -0.5271 -0.0441  0.0373
 2673DECAN   C326713   8.769   8.739  11.680  0.0774  0.0246 -0.0735
 2673DECAN   C426714   8.885   8.794  11.594 -0.2365  0.3974 -0.2621
 2673DECAN   C526715   8.914   8.724  11.460 -0.0022 -0.3818  0.1866
 2673DECAN   C626716   9.058   8.755  11.416  0.0591 -0.1224  0.5676
 2673DECAN   C726717   9.091   8.710  11.272 -0.1268  0.3369  0.3789
 2673DECAN   C826718   9.040   8.801  11.158  0.1124  0.2123  0.1710
 2673DECAN   C926719   9.107   8.939  11.166  0.5116  0.0462 -0.2781
 2673DECAN  C1026720   9.055   9.038  11.059 -0.2039 -0.3031 -0.2592
 2674DECAN   C126721   1.245   9.154  10.306  0.2733  0.1406 -0.1505
 2674DECAN   C226722   1.105   9.097  10.278  0.1350  0.3663  0.0761
 2674DECAN   C326723   1.000   9.193  10.218 -0.0539  0.2240  0.1759
 2674DECAN   C426724   0.867   9.115  10.215  0.2468 -0.2931  0.1555
 2674DECAN   C526725   0.846   9.023  10.093  0.2541  0.1901 -0.2154
 2674DECAN   C626726   0.933   8.896  10.101  0.1976  0.1771  0.1921
 2674DECAN   C726727   0.908   8.790   9.992  0.5338  0.0961  0.1916
 2674DECAN   C826728   1.000   8.670  10.021  0.0968 -0.3797 -0.3623
 2674DECAN   C926729   0.982   8.599  10.156 -0.1222  0.0289 -0.1748
 2674DECAN  C1026730   1.053   8.666  10.276 -0.4496  0.1101 -0.0269
 2675DECAN   C126731   4.363   0.276  14.165 -0.0313 -0.2059  0.3838
 2675DECAN   C226732   4.284   0.201  14.057 -0.0250 -0.3167  0.4556
 2675DECAN   C326733   4.316   0.266  13.921 -0.5822 -0.6534  0.1601
 2675DECAN   C426734   4.467   0.271  13.893 -0.4844 -0.0887  0.7523
 2675DECAN   C526735   4.513   0.139  13.827 -0.3021  0.3815 -0.0817
 2675DECAN   C626736   4.666   0.141  13.812 -0.2966  0.2595 -0.0408
 2675DECAN   C726737   4.700   0.009  13.740  0.2569  0.2134  0.2960
 2675DECAN   C826738   4.653   0.009  13.593 -0.5240 -0.0160  0.5426
 2675DECAN   C926739   4.654  11.109  13.536 -0.0468  0.1777  0.0508
 2675DECAN  C1026740   4.553  11.014  13.604 -0.0168 -0.1167 -0.3144
 2676DECAN   C126741   7.908   2.878   7.327  0.5957 -0.1972 -0.4084
 2676DECAN   C226742   7.959   2.733   7.336  0.1616 -0.3058  0.4296
 2676DECAN   C326743   7.860   2.632   7.276  0.5035 -0.2104 -0.3100
 2676DECAN   C426744   7.731   2.633   7.361  0.3837 -0.4093 -0.4856
 2676DECAN   C526745   7.625   2.525   7.336 -0.4740  0.4781 -0.7393
 2676DECAN   C626746   7.506   2.515   7.433  0.1597 -0.2749 -0.0281
 2676DECAN   C726747   7.411   2.394   7.420 -0.0714 -0.0810 -0.1517
 2676DECAN   C826748   7.469   2.253   7.445  0.0311 -0.0828 -0.4030
 2676DECAN   C926749   7.360   2.148   7.420  0.0523 -0.1139 -0.3638
 2676DECAN  C1026750   7.229   2.147   7.501  0.5238 -0.4400  0.4037
 2677DECAN   C126751   5.265   8.105   9.696 -0.0977  0.2083 -0.0211
 2677DECAN   C226752   5.362   7.995   9.648 -0.5441  0.0030 -0.4598
 2677DECAN   C326753   5.467   8.056   9.553 -0.2693 -0.0444 -0.1879
 2677DECAN   C426754   5.402   8.132   9.435 -0.2819 -0.6284 -0.5572
 2677DECAN   C526755   5.492   8.150   9.311  0.6830 -0.2751  0.1753
 2677DECAN   C626756   5.629   8.217   9.326  0.1804  0.8440 -0.1456
 2677DECAN   C726757   5.706   8.233   9.194  0.4317  0.6776 -0.0207
 2677DECAN   C826758   5.844   8.301   9.205  0.6107  0.3539 -0.2594
 2677DECAN   C926759   5.928   8.304   9.075 -0.0300 -0.1798 -0.6929
 2677DECAN  C1026760   6.058   8.385   9.086 -0.3776  0.3201 -0.1457
 2678DECAN   C126761   3.190   3.848   7.779  0.0526  0.4877 -0.1538
 2678DECAN   C226762   3.146   3.801   7.639  0.1482 -0.2790  0.0705
 2678DECAN   C326763   3.007   3.736   7.648 -0.1080  0.2782  0.2169
 2678DECAN   C426764   2.900   3.843   7.677  0.0313  0.5128 -0.1278
 2678DECAN   C526765   2.757   3.793   7.701  0.3682 -0.2566  0.3150
 2678DECAN   C626766   2.661   3.914   7.703  0.1833 -0.3875 -0.2701
 2678DECAN   C726767   2.513   3.877   7.721  0.1437  0.0641  0.3458
 2678DECAN   C826768   2.426   3.998   7.763  0.0475  0.1205 -0.0140
 2678DECAN   C926769   2.431   4.095   7.644 -0.3247 -0.3670 -0.4304
 2678DECAN  C1026770   2.344   4.222   7.652  0.2099 -0.0451  0.3340
 2679DECAN   C126771   6.410   1.784  11.775 -0.1890 -0.0901 -0.5859
 2679DECAN   C226772   6.341   1.656  11.722 -0.2470 -0.2448 -0.1491
 2679DECAN   C326773   6.245   1.577  11.812 -0.3355 -0.2359 -0.2357
 2679DECAN   C426774   6.120   1.655  11.857  0.0372 -0.0297  0.4510
 2679DECAN   C526775   6.136   1.804  11.889 -0.0980  0.0076  0.3451
 2679DECAN   C626776   6.010   1.871  11.947 -0.3413 -0.5783  0.4894
 2679DECAN   C726777   6.007   2.018  11.904 -0.1031 -0.7647 -0.1685
 2679DECAN   C826778   5.975   2.022  11.753 -0.8317  1.0980  0.0025
 2679DECAN   C926779   5.831   1.991  11.710 -0.4532 -0.5177 -0.1562
 2679DECAN  C1026780   5.715   2.083  11.752  0.0961 -0.2981  0.9208
 2680DECAN   C126781   9.815  10.790   5.586  0.6904 -0.3316 -0.1997
 2680DECAN   C226782   9.745  10.676   5.661 -0.3746  0.1221 -0.4787
 2680DECAN   C326783   9.607  10.712   5.717 -0.0946  0.2821  0.1145
 2680DECAN   C426784   9.544  10.607   5.811 -0.2072  0.3924  0.1645
 2680DECAN   C526785   9.566  10.459   5.774  0.0388  0.4379  0.1283
 2680DECAN   C626786   9.481  10.364   5.861  0.0345  0.1477 -0.1895
 2680DECAN   C726787   9.489  10.388   6.013  0.5388 -0.4221 -0.1218
 2680DECAN   C826788   9.396  10.308   6.107  0.6045 -0.3083  0.0403
 2680DECAN   C926789   9.410  10.344   6.256 -0.1817  0.2539 -0.0183
 2680DECAN  C1026790   9.373  10.489   6.295 -0.2656  0.0041  0.8567
 2681DECAN   C126791   7.234   0.916  12.460  0.2245 -0.0100 -0.0442
 2681DECAN   C226792   7.131   1.030  12.445  0.1222 -0.1267 -0.2201
 2681DECAN   C326793   7.185   1.149  12.363 -0.0973  0.2596  0.1927
 2681DECAN   C426794   7.220   1.099  12.221  0.3428  0.0346  0.3765
 2681DECAN   C526795   7.246   1.214  12.122 -0.1071 -0.3166 -0.1563
 2681DECAN   C626796   7.280   1.166  11.980 -0.0439 -0.6730 -0.0207
 2681DECAN   C726797   7.264   1.269  11.867 -0.2696 -0.1536  0.4770
 2681DECAN   C826798   7.362   1.386  11.889  0.0068 -0.2851 -0.0174
 2681DECAN   C926799   7.371   1.485  11.771 -0.3759  0.2772  0.4170
 2681DECAN  C1026800   7.437   1.618  11.813  0.0095  0.1045  0.3697
 2682DECAN   C126801   6.564   4.272   6.036  0.5106 -0.0326  0.4495
 2682DECAN   C226802   6.643   4.380   5.959  0.0076 -0.1937 -0.3009
 2682DECAN   C326803   6.794   4.357   5.944  0.1154  0.2616  0.0469
 2682DECAN   C426804   6.858   4.464   5.854  0.0942 -0.0025 -0.2870
 2682DECAN   C526805   6.811   4.476   5.708  0.5501 -0.2049 -0.4545
 2682DECAN   C626806   6.830   4.354   5.617  0.0088 -0.4384 -0.2591
 2682DECAN   C726807   6.766   4.357   5.477  0.2654 -0.8254 -0.3877
 2682DECAN   C826808   6.842   4.447   5.378 -0.0993  0.0705  0.1405
 2682DECAN   C926809   6.863   4.593   5.423  0.6237  0.0846 -0.2368
 2682DECAN  C1026810   6.963   4.680   5.344  0.6907 -0.2924 -0.5658
 2683DECAN   C126811   3.613   1.490   4.452  0.5466  0.2125  0.1648
 2683DECAN   C226812   3.664   1.354   4.402 -0.0344  0.1131 -0.1721
 2683DECAN   C326813   3.777   1.291   4.486 -0.4589 -0.6089 -0.1298
 2683DECAN   C426814   3.736   1.245   4.627 -0.3757  0.2823  0.1915
 2683DECAN   C526815   3.846   1.177   4.710 -0.1258 -0.1151 -0.4615
 2683DECAN   C626816   3.806   1.129   4.850  0.1183  0.2097 -0.2811
 2683DECAN   C726817   3.875   1.008   4.914 -0.5204 -0.1664 -0.2981
 2683DECAN   C826818   3.799   0.948   5.034 -0.3097 -0.3199 -0.2403
 2683DECAN   C926819   3.839   1.011   5.169  0.0733  0.0875 -0.5413
 2683DECAN  C1026820   3.764   1.145   5.168 -0.1954 -0.0546  0.2273
 2684DECAN   C126821   7.051  11.070  10.037 -0.6937 -0.1952  0.2835
 2684DECAN   C226822   7.147  11.184   9.999 -0.8435 -0.1370  0.0854
 2684DECAN   C326823   7.296  11.153  10.023 -0.9120 -0.3867  0.1863
 2684DECAN   C426824   7.343  11.033   9.939 -0.5806  0.0366 -0.2390
 2684DECAN   C526825   7.496  11.024   9.925 -0.5677  0.1271 -0.1653
 2684DECAN   C626826   7.556  10.903   9.850  0.3859  0.2866  0.3233
 2684DECAN   C726827   7.710  10.902   9.850  0.3865  0.2305  0.0278
 2684DECAN   C826828   7.778  10.995   9.747  0.0900  0.1568 -0.2363
 2684DECAN   C926829   7.932  10.992   9.753  0.0683 -0.0756  0.2399
 2684DECAN  C1026830   8.010  11.082   9.656  0.0977 -0.3713 -0.0100
 2685DECAN   C126831   2.537   0.674  12.140  0.6413  0.5524  0.2856
 2685DECAN   C226832   2.510   0.824  12.166  0.3536  0.7542 -1.0888
 2685DECAN   C326833   2.566   0.866  12.303  0.2254 -0.2686 -0.7096
 2685DECAN   C426834   2.539   1.010  12.350  0.3006 -0.4510 -0.1020
 2685DECAN   C526835   2.604   1.043  12.486  0.2950 -0.6823 -0.0419
 2685DECAN   C626836   2.555   0.961  12.606  0.2261 -0.0714  0.3494
 2685DECAN   C726837   2.636   0.960  12.737  0.6651  0.2393  0.0831
 2685DECAN   C826838   2.580   0.879  12.856  0.0148  0.1295 -0.2959
 2685DECAN   C926839   2.542   0.737  12.811 -0.0870  0.0626  0.0025
 2685DECAN  C1026840   2.660   0.645  12.774 -0.0462  0.0475  0.1676
 2686DECAN   C126841   5.958   7.150   5.294  0.3801  0.9425 -0.0425
 2686DECAN   C226842   6.032   7.105   5.421  0.3090  0.5175 -0.1490
 2686DECAN   C326843   5.968   6.978   5.479 -0.0777  0.6169 -0.3574
 2686DECAN   C426844   5.829   6.995   5.544  0.0938 -0.6251  0.3821
 2686DECAN   C526845   5.841   7.106   5.650 -0.0542 -0.6720  0.4480
 2686DECAN   C626846   5.712   7.142   5.726  0.1162  0.4423  0.2327
 2686DECAN   C726847   5.616   7.208   5.625 -0.3628 -0.3205  0.1729
 2686DECAN   C826848   5.577   7.116   5.508  0.1458  0.0413 -0.2878
 2686DECAN   C926849   5.496   7.176   5.392  0.2415  0.3167 -0.2140
 2686DECAN  C1026850   5.438   7.057   5.313  0.3177 -0.1268  0.3870
 2687DECAN   C126851   8.390   0.133  14.335  0.2735 -0.3075  0.6737
 2687DECAN   C226852   8.392   0.256  14.242  0.1291 -0.7153  0.1267
 2687DECAN   C326853   8.448   0.240  14.100  0.2199 -0.2405  0.1056
 2687DECAN   C426854   8.601   0.227  14.093  0.2320 -0.1347  0.1846
 2687DECAN   C526855   8.662   0.179  13.960  0.2510 -0.5996  0.3603
 2687DECAN   C626856   8.754   0.056  13.971  0.9575 -0.1269 -0.1559
 2687DECAN   C726857   8.686  11.164  13.994  0.1688  0.2371 -0.2982
 2687DECAN   C826858   8.794  11.054  13.990  0.0190  0.0665  0.2034
 2687DECAN   C926859   8.738  10.912  14.010  0.2497  0.0007  0.3789
 2687DECAN  C1026860   8.856  10.813  14.005 -0.4520 -0.8514  0.6035
 2688DECAN   C126861  10.835   7.693  10.010 -0.2401  0.0695 -0.3181
 2688DECAN   C226862  10.771   7.832  10.032 -0.2539  0.0122  0.0125
 2688DECAN   C326863  10.850   7.945   9.963  0.1854 -0.1452  0.2561
 2688DECAN   C426864  10.764   8.072   9.974 -0.0252 -0.2687  0.0449
 2688DECAN   C526865  10.816   8.197   9.903 -0.7422  0.0138  0.0050
 2688DECAN   C626866  10.803   8.185   9.750  0.1080  0.1978 -0.0877
 2688DECAN   C726867  10.778   8.312   9.667 -0.1988  0.0149 -0.2793
 2688DECAN   C826868  10.741   8.271   9.524 -0.4810 -0.2718 -0.1258
 2688DECAN   C926869  10.742   8.378   9.413 -0.0028 -0.6299 -0.4739
 2688DECAN  C1026870  10.693   8.306   9.285  0.2180 -0.9999 -0.3530
 2689DECAN   C126871   4.505   1.376  13.239 -0.4875  0.1076  0.0935
 2689DECAN   C226872   4.384   1.467  13.212 -0.4191  0.4279  0.8300
 2689DECAN   C326873   4.259   1.403  13.275 -0.3956 -0.5107 -0.0449
 2689DECAN   C426874   4.269   1.385  13.428  0.2399 -0.1110 -0.0388
 2689DECAN   C526875   4.143   1.334  13.500  0.3967 -0.2306  0.1533
 2689DECAN   C626876   4.144   1.327  13.654 -0.0661  0.2453  0.1805
 2689DECAN   C726877   4.135   1.464  13.724  0.0628  0.1959  0.2939
 2689DECAN   C826878   4.137   1.452  13.878 -0.5572 -0.1240  0.2795
 2689DECAN   C926879   4.099   1.582  13.952  0.2072  0.2386  0.0481
 2689DECAN  C1026880   3.946   1.597  13.944  0.0572 -1.1088  0.0786
 2690DECAN   C126881   2.322   8.361   7.293  0.7984 -0.0199 -0.2937
 2690DECAN   C226882   2.336   8.262   7.411  0.1502  0.4324  0.1679
 2690DECAN   C326883   2.442   8.158   7.372 -0.4532 -0.0984 -0.0697
 2690DECAN   C426884   2.578   8.212   7.325 -0.5277  0.0088 -0.1624
 2690DECAN   C526885   2.647   8.287   7.440  0.1408 -0.5547 -0.1903
 2690DECAN   C626886   2.731   8.196   7.531  0.0482 -0.0501  0.4116
 2690DECAN   C726887   2.786   8.263   7.658  0.2514  0.0338  0.2801
 2690DECAN   C826888   2.879   8.163   7.729  0.2642 -0.0614  0.1293
 2690DECAN   C926889   2.955   8.212   7.854  0.4774  0.2831 -0.1368
 2690DECAN  C1026890   3.049   8.113   7.924 -0.1300 -0.1246  0.1001
 2691DECAN   C126891   5.053   6.960   6.832  0.4581 -0.0609 -0.2518
 2691DECAN   C226892   5.081   7.087   6.916 -0.1221  0.1040 -0.3033
 2691DECAN   C326893   5.020   7.222   6.874 -0.2053  0.2447  0.2617
 2691DECAN   C426894   5.046   7.345   6.962 -0.2003  0.3747  0.0803
 2691DECAN   C526895   5.043   7.322   7.115 -0.1407 -0.1900 -0.0017
 2691DECAN   C626896   5.080   7.438   7.209  0.5221 -0.1604 -0.2894
 2691DECAN   C726897   5.224   7.487   7.185  0.1538  1.2070  0.2053
 2691DECAN   C826898   5.283   7.612   7.253  0.3428  1.0746  0.2835
 2691DECAN   C926899   5.316   7.594   7.403 -0.1248  0.6103  0.3325
 2691DECAN  C1026900   5.187   7.569   7.483 -0.5201 -0.0315 -0.4834
 2692DECAN   C126901  10.077   3.259  10.699 -0.0740 -0.4133 -0.6250
 2692DECAN   C226902  10.048   3.410  10.697  0.2138 -0.3504 -0.0995
 2692DECAN   C326903  10.107   3.468  10.827  0.4317 -0.4008 -0.1749
 2692DECAN   C426904  10.033   3.595  10.874  0.4014 -0.3870 -0.2594
 2692DECAN   C526905  10.048   3.628  11.024 -0.3801 -0.0716 -0.2479
 2692DECAN   C626906   9.978   3.763  11.043 -0.4938 -0.1029 -0.4328
 2692DECAN   C726907  10.006   3.875  10.941  0.3100  0.5372  0.4745
 2692DECAN   C826908   9.913   3.996  10.961  0.0978  0.4881 -0.2174
 2692DECAN   C926909   9.784   3.987  10.877  0.3547  0.6417 -0.6352
 2692DECAN  C1026910   9.707   4.108  10.933  0.5617  0.5673 -0.1859
 2693DECAN   C126911  11.127   9.489  11.849 -0.0526 -0.3532 -0.2938
 2693DECAN   C226912  11.029   9.535  11.957 -0.0262 -0.7193 -0.1124
 2693DECAN   C326913  10.978   9.677  11.926  0.3131 -0.5600  0.0557
 2693DECAN   C426914  10.926   9.691  11.782 -0.0352 -0.3563  0.2011
 2693DECAN   C526915  11.031   9.640  11.683 -0.7214 -0.9372 -0.2394
 2693DECAN   C626916  10.989   9.662  11.536 -0.0050 -0.6041 -0.3987
 2693DECAN   C726917  10.847   9.610  11.509 -0.2210 -0.1566 -0.1343
 2693DECAN   C826918  10.733   9.669  11.594  0.6418  0.0468  0.9049
 2693DECAN   C926919  10.600   9.599  11.563  0.8598  0.0382 -0.0247
 2693DECAN  C1026920  10.595   9.452  11.607  0.2070 -0.1048 -0.5459
 2694DECAN   C126921   8.935   7.013   9.737  0.3460  0.2865 -0.0003
 2694DECAN   C226922   9.087   7.040   9.743  0.4325 -0.0984 -0.4005
 2694DECAN   C326923   9.151   7.116   9.861  0.2459  0.1598 -0.4661
 2694DECAN   C426924   9.278   7.198   9.833  0.3397  0.0105 -0.4711
 2694DECAN   C526925   9.349   7.231   9.966 -0.2982  0.0908 -0.1473
 2694DECAN   C626926   9.486   7.299   9.947 -0.2437  0.1086  0.3090
 2694DECAN   C726927   9.486   7.410   9.841  0.0826  0.0509  0.2460
 2694DECAN   C826928   9.620   7.478   9.808  0.2997 -0.4531  0.0790
 2694DECAN   C926929   9.616   7.559   9.677 -0.7596 -0.1739  0.2750
 2694DECAN  C1026930   9.602   7.477   9.547 -0.5571 -0.4754  0.4428
 2695DECAN   C126931   3.937   9.965   5.317  0.2901  0.0974 -0.2701
 2695DECAN   C226932   4.042  10.050   5.390  0.2102  0.1484 -0.2144
 2695DECAN   C326933   3.976  10.163   5.471  0.3114  0.2950 -0.3315
 2695DECAN   C426934   4.071  10.257   5.547 -0.1346  0.3633  0.1560
 2695DECAN   C526935   4.173  10.341   5.468  0.0389  0.3032  0.3168
 2695DECAN   C626936   4.275  10.248   5.399  0.1469  0.4774  0.2407
 2695DECAN   C726937   4.388  10.308   5.313  0.1607  0.2887  0.1265
 2695DECAN   C826938   4.487  10.207   5.252 -0.7928 -0.3001 -0.4602
 2695DECAN   C926939   4.583  10.271   5.149 -0.1673  0.0626  0.3418
 2695DECAN  C1026940   4.673  10.386   5.198  0.1154 -0.1171  0.2467
 2696DECAN   C126941   5.293  10.271   9.976 -0.3700 -0.0420  0.8726
 2696DECAN   C226942   5.387  10.171   9.907  0.0723  0.7751  0.2728
 2696DECAN   C326943   5.539  10.197   9.919  0.1870  0.1496  0.2135
 2696DECAN   C426944   5.635  10.085   9.872 -0.1270  0.2180 -0.6094
 2696DECAN   C526945   5.778  10.137   9.893 -0.4350  0.5208  0.8739
 2696DECAN   C626946   5.808  10.265   9.813 -0.1318 -0.1461 -0.0975
 2696DECAN   C726947   5.957  10.302   9.812 -0.2038  0.1391 -0.3358
 2696DECAN   C826948   5.996  10.381   9.686  0.0975  0.1182 -0.2591
 2696DECAN   C926949   6.148  10.397   9.664  0.2018  0.2178  0.5352
 2696DECAN  C1026950   6.209  10.432   9.528 -0.3082 -0.1010  0.2208
 2697DECAN   C126951   4.575  10.998  13.092 -0.1194  0.3337  0.3724
 2697DECAN   C226952   4.604  11.140  13.039 -0.0068  0.3254  0.4106
 2697DECAN   C326953   4.625  11.160  12.887  0.2748  0.5554  0.4775
 2697DECAN   C426954   4.485  11.131  12.829  0.3388  0.1892  0.4999
 2697DECAN   C526955   4.478  11.168  12.680  0.1843 -1.3265  0.1201
 2697DECAN   C626956   4.339  11.137  12.622 -0.1845  0.2632  0.1161
 2697DECAN   C726957   4.226  11.233  12.665 -0.2189  0.3133 -0.0820
 2697DECAN   C826958   4.084  11.190  12.625 -0.3212 -0.0981  0.7046
 2697DECAN   C926959   3.977   0.043  12.680 -0.4307  0.0559  0.2200
 2697DECAN  C1026960   3.839   0.033  12.612 -0.1012 -0.0656 -0.4384
 2698DECAN   C126961   7.112   6.121  12.774 -0.1158 -0.0652  0.1707
 2698DECAN   C226962   7.256   6.132  12.829  0.0637  0.3281 -0.3711
 2698DECAN   C326963   7.291   6.028  12.937  0.1334 -0.0111 -0.7165
 2698DECAN   C426964   7.310   5.890  12.872  0.1752 -0.4685  0.2417
 2698DECAN   C526965   7.175   5.860  12.805  0.6238 -0.4736 -0.6757
 2698DECAN   C626966   7.178   5.727  12.727  0.4244 -0.6003 -0.4681
 2698DECAN   C726967   7.035   5.674  12.704  0.1748 -0.1141 -0.0630
 2698DECAN   C826968   7.043   5.536  12.635 -0.8764 -0.5161  0.6021
 2698DECAN   C926969   7.124   5.437  12.721  0.4253  0.3695  0.4229
 2698DECAN  C1026970   7.133   5.294  12.665  0.5097  0.4449  0.2451
 2699DECAN   C126971   8.358   8.931  10.787  0.9229 -0.7243 -0.5513
 2699DECAN   C226972   8.400   8.891  10.929 -0.6699 -0.1380  0.1015
 2699DECAN   C326973   8.304   8.809  11.018 -0.4866  0.0204  0.4479
 2699DECAN   C426974   8.371   8.766  11.150  0.6138 -0.4896 -0.2564
 2699DECAN   C526975   8.278   8.667  11.223  0.0084  0.1193 -0.1822
 2699DECAN   C626976   8.347   8.582  11.331 -0.2619 -0.3421 -0.3683
 2699DECAN   C726977   8.453   8.481  11.282  0.3772  0.3388 -0.4114
 2699DECAN   C826978   8.524   8.403  11.394 -0.3121  0.3518  0.0474
 2699DECAN   C926979   8.614   8.287  11.347 -0.5561  0.1226  0.1457
 2699DECAN  C1026980   8.734   8.339  11.266 -0.5235 -0.2662 -0.0614
 2700DECAN   C126981   6.825   6.566  12.706  0.2949 -0.0472 -0.2157
 2700DECAN   C226982   6.857   6.518  12.563  0.4052  0.2015 -0.2751
 2700DECAN   C326983   6.865   6.364  12.564 -0.4051  0.1540  0.3505
 2700DECAN   C426984   6.915   6.311  12.429 -0.0366  0.1761  0.4769
 2700DECAN   C526985   6.801   6.311  12.325 -0.2832  0.1232  0.7447
 2700DECAN   C626986   6.775   6.456  12.280 -0.5806 -0.1204  0.1118
 2700DECAN   C726987   6.642   6.486  12.209 -0.4744  0.2473  0.0659
 2700DECAN   C826988   6.632   6.404  12.080  0.0073  0.4895 -0.1276
 2700DECAN   C926989   6.495   6.429  12.014 -0.1602  0.2446  0.1258
 2700DECAN  C1026990   6.480   6.359  11.877 -0.4770  0.1054  0.2297
 2701DECAN   C126991   4.784   8.135   8.235  0.3705 -0.1946  0.6980
 2701DECAN   C226992   4.698   8.088   8.353 -0.3161  0.0021  0.2847
 2701DECAN   C326993   4.746   7.961   8.426  0.4514  0.0188 -0.1904
 2701DECAN   C426994   4.864   7.977   8.525  0.2419 -0.2815  0.1067
 2701DECAN   C526995   4.832   8.084   8.631 -0.2094 -0.1405 -0.1665
 2701DECAN   C626996   4.951   8.101   8.728 -0.6089  0.2618  0.2594
 2701DECAN   C726997   4.897   8.176   8.851  0.2503  0.2863  0.6271
 2701DECAN   C826998   4.914   8.329   8.843 -0.1947  0.2987 -0.1829
 2701DECAN   C926999   4.892   8.402   8.977 -0.1786  0.0743 -0.0561
 2701DECAN  C1027000   4.946   8.545   8.953 -0.6000  0.3358  0.5335
 2702DECAN   C127001   3.603   8.435   5.495  0.0936 -0.2113 -0.4259
 2702DECAN   C227002   3.647   8.311   5.575 -0.2712 -0.2393 -0.2676
 2702DECAN   C327003   3.801   8.308   5.577 -0.2515  0.4232 -0.5630
 2702DECAN   C427004   3.874   8.428   5.639  0.0919  0.0920 -0.3243
 2702DECAN   C527005   4.020   8.452   5.600  0.0664  0.4211 -0.2266
 2702DECAN   C627006   4.074   8.574   5.676 -0.2417  0.2056  0.3411
 2702DECAN   C727007   4.119   8.548   5.821 -0.2434 -0.3892  0.2356
 2702DECAN   C827008   4.098   8.660   5.925  0.5379  0.2151 -0.2526
 2702DECAN   C927009   4.126   8.618   6.070 -0.1455  0.1971 -0.1264
 2702DECAN  C1027010   4.105   8.733   6.170  0.1636  0.0579  0.1011
 2703DECAN   C127011   3.840   6.090   3.726  0.5275 -0.0245 -0.0738
 2703DECAN   C227012   3.919   6.214   3.773  0.2584 -0.0380  0.4272
 2703DECAN   C327013   3.832   6.330   3.825  0.0320 -0.3039  0.6406
 2703DECAN   C427014   3.767   6.286   3.958  0.3570 -0.5960  0.7055
 2703DECAN   C527015   3.696   6.150   3.959 -0.4726 -0.1793 -0.0932
 2703DECAN   C627016   3.633   6.118   4.096 -0.1267 -0.1571  0.0705
 2703DECAN   C727017   3.570   5.977   4.092 -0.0483 -0.1854 -0.2095
 2703DECAN   C827018   3.527   5.945   4.236  0.3171 -0.0904 -0.0772
 2703DECAN   C927019   3.459   5.809   4.261 -0.2222  0.1641 -0.1446
 2703DECAN  C1027020   3.352   5.815   4.372 -0.1305 -0.6095 -0.0089
 2704DECAN   C127021   5.079  10.204  14.395 -0.0722 -0.2977 -0.1667
 2704DECAN   C227022   5.094  10.326  14.489  0.0786 -0.4760  0.0408
 2704DECAN   C327023   5.241  10.347  14.530  0.0408  0.1278 -0.1259
 2704DECAN   C427024   5.306  10.481  14.569 -0.1585  0.1861  0.0013
 2704DECAN   C527025   5.452  10.471  14.616 -0.3111 -0.6302  0.3264
 2704DECAN   C627026   5.514  10.604  14.663 -0.1247 -0.5436 -0.1629
 2704DECAN   C727027   5.661  10.597  14.707  0.0257  0.2838 -0.5095
 2704DECAN   C827028   5.729  10.734  14.728 -0.1958  0.2639  0.3707
 2704DECAN   C927029   5.665  10.848  14.809 -0.4737  0.2180  0.2179
 2704DECAN  C1027030   5.754  10.972  14.821 -0.0141 -0.0285 -0.6177
 2705DECAN   C127031   2.683   9.351   4.779 -0.2717  0.4192 -0.0830
 2705DECAN   C227032   2.612   9.423   4.894 -0.3432 -0.0620  0.1759
 2705DECAN   C327033   2.596   9.349   5.029  0.7943  0.1578  0.4370
 2705DECAN   C427034   2.519   9.421   5.141 -0.0832 -0.0676 -0.0157
 2705DECAN   C527035   2.469   9.343   5.264  0.0834  0.0463  0.1241
 2705DECAN   C627036   2.351   9.412   5.333 -0.3561 -0.1872 -0.3842
 2705DECAN   C727037   2.227   9.397   5.243 -0.6417  0.0545 -0.0330
 2705DECAN   C827038   2.242   9.475   5.111 -0.2784 -0.1675 -0.1240
 2705DECAN   C927039   2.123   9.472   5.013 -0.6022 -0.8442  0.2765
 2705DECAN  C1027040   2.153   9.551   4.883 -0.0282  0.1036  0.9683
 2706DECAN   C127041   2.102   1.379  14.195 -0.6381  0.4093  0.3118
 2706DECAN   C227042   2.075   1.505  14.280  0.4366  0.4293  0.6372
 2706DECAN   C327043   1.931   1.516  14.334  0.0648  0.7138 -0.3933
 2706DECAN   C427044   1.818   1.456  14.247  0.2969 -0.5751  0.1709
 2706DECAN   C527045   1.675   1.498  14.286  0.5040  0.1509  0.1727
 2706DECAN   C627046   1.656   1.645  14.327 -0.1352  0.2498 -0.4556
 2706DECAN   C727047   1.519   1.689  14.380 -0.0353  0.0142  0.0055
 2706DECAN   C827048   1.407   1.660  14.278  0.1940  0.4030 -0.3605
 2706DECAN   C927049   1.404   1.510  14.242  0.0657  0.4046 -0.3565
 2706DECAN  C1027050   1.301   1.459  14.140 -0.2266  0.1708  0.0496
 2707DECAN   C127051   6.024   4.557  10.365  0.6018  0.0715  0.2515
 2707DECAN   C227052   6.157   4.541  10.289  0.2386  0.4551 -0.4756
 2707DECAN   C327053   6.160   4.439  10.173 -0.1940  0.2727 -0.3313
 2707DECAN   C427054   6.291   4.440  10.092  0.3292 -0.2810  0.4902
 2707DECAN   C527055   6.279   4.361   9.960 -0.3903  0.2481  0.2309
 2707DECAN   C627056   6.250   4.214   9.995 -0.0412  0.1622  0.1677
 2707DECAN   C727057   6.111   4.181  10.055  0.0663 -0.3845  0.1244
 2707DECAN   C827058   6.060   4.036  10.044 -0.0516 -0.2943 -0.5875
 2707DECAN   C927059   5.924   4.017  10.115 -0.0219 -0.2670 -0.5224
 2707DECAN  C1027060   5.888   3.869  10.129  0.5274 -0.3280  0.3182
 2708DECAN   C127061   3.715   2.004   6.833  0.1193 -0.7161 -0.3973
 2708DECAN   C227062   3.841   1.961   6.912 -0.0821  0.1957  0.4434
 2708DECAN   C327063   3.972   2.019   6.857  0.0007 -0.2122  0.2027
 2708DECAN   C427064   3.963   2.166   6.812  0.5191 -0.2019  0.1280
 2708DECAN   C527065   4.094   2.235   6.767  0.4059  0.0516  0.1845
 2708DECAN   C627066   4.169   2.169   6.650  0.0913 -0.1052  0.0680
 2708DECAN   C727067   4.293   2.242   6.593 -0.1846  0.1053 -0.2680
 2708DECAN   C827068   4.357   2.155   6.484 -0.2020  0.1829 -0.3406
 2708DECAN   C927069   4.495   2.205   6.438  0.0538 -0.1317  0.0782
 2708DECAN  C1027070   4.494   2.345   6.375  0.0709 -0.0286  0.3058
 2709DECAN   C127071   4.844   8.722  11.517  0.5485  0.4592  0.0992
 2709DECAN   C227072   4.748   8.715  11.397  0.4434  0.4981  0.1804
 2709DECAN   C327073   4.645   8.829  11.389  0.0559  0.1482  0.1198
 2709DECAN   C427074   4.705   8.971  11.383  0.0222  0.1615  0.0821
 2709DECAN   C527075   4.591   9.074  11.395  0.0969  0.2289  0.2107
 2709DECAN   C627076   4.637   9.220  11.414 -0.2449  0.3333  0.2417
 2709DECAN   C727077   4.538   9.338  11.402  0.0347  0.5346 -0.1014
 2709DECAN   C827078   4.476   9.370  11.265  0.3485  0.1221 -0.3430
 2709DECAN   C927079   4.408   9.505  11.237 -0.1806 -0.0933 -0.1047
 2709DECAN  C1027080   4.300   9.491  11.128 -0.3604  0.8220 -0.0584
 2710DECAN   C127081   7.653   4.934  13.227  0.4105 -0.9162  0.5073
 2710DECAN   C227082   7.661   4.808  13.139  0.5150 -0.3174 -0.3568
 2710DECAN   C327083   7.754   4.815  13.017  0.5223  0.3917 -0.3171
 2710DECAN   C427084   7.704   4.890  12.892 -0.0478  0.4898 -0.0295
 2710DECAN   C527085   7.789   4.884  12.764 -0.3104  0.1932 -0.1941
 2710DECAN   C627086   7.845   4.746  12.725 -0.1670  0.1707  0.0891
 2710DECAN   C727087   7.914   4.723  12.590  0.0146  0.3494  0.1506
 2710DECAN   C827088   7.984   4.586  12.595 -0.0607  0.2846 -0.4286
 2710DECAN   C927089   8.041   4.511  12.473  0.6690  0.5523 -0.2579
 2710DECAN  C1027090   8.081   4.364  12.498 -1.5866 -0.0174  0.1759
 2711DECAN   C127091   8.832   8.431  14.225 -0.0535  0.6574 -0.1629
 2711DECAN   C227092   8.837   8.540  14.116 -0.1714  0.5897 -0.2352
 2711DECAN   C327093   8.903   8.669  14.169  0.5959  0.1606 -0.1335
 2711DECAN   C427094   8.923   8.774  14.058 -0.5092  0.1032 -0.3961
 2711DECAN   C527095   8.993   8.898  14.116  0.5674 -0.4830 -0.4258
 2711DECAN   C627096   9.072   8.974  14.007  0.3221  0.6546  0.1811
 2711DECAN   C727097   9.191   8.889  13.959  0.0136  0.3668 -0.0734
 2711DECAN   C827098   9.146   8.754  13.901 -0.3507  0.2948  0.3765
 2711DECAN   C927099   9.255   8.659  13.848 -0.0344  0.7918  0.1355
 2711DECAN  C1027100   9.190   8.526  13.809  0.4385  0.4772  0.3993
 2712DECAN   C127101   8.425   9.095  14.543 -0.3530  0.6151  0.6683
 2712DECAN   C227102   8.535   9.012  14.612 -0.3669  0.0224 -0.0112
 2712DECAN   C327103   8.628   9.089  14.709  0.0730 -0.6852  0.1357
 2712DECAN   C427104   8.743   9.149  14.626 -0.3776  0.1355  0.0994
 2712DECAN   C527105   8.697   9.270  14.541 -0.4547 -0.3585 -0.5664
 2712DECAN   C627106   8.814   9.342  14.471  0.0309 -0.5555  0.0289
 2712DECAN   C727107   8.778   9.458  14.377  0.5184  0.3649  0.9623
 2712DECAN   C827108   8.884   9.529  14.292 -0.5748  0.4985 -0.3184
 2712DECAN   C927109   8.936   9.452  14.169 -0.1961  0.1777  0.0422
 2712DECAN  C1027110   9.088   9.461  14.144 -0.1106 -0.1369  0.4495
 2713DECAN   C127111   9.113   4.938   9.609 -0.3519  0.1472 -0.9268
 2713DECAN   C227112   9.195   5.068   9.597 -0.4238  0.2381 -0.4333
 2713DECAN   C327113   9.344   5.061   9.634 -0.6342  0.1485  0.4312
 2713DECAN   C427114   9.407   5.201   9.650 -0.1038 -0.0289 -0.0651
 2713DECAN   C527115   9.530   5.210   9.742 -0.2694 -0.4092  0.1921
 2713DECAN   C627116   9.609   5.342   9.740 -0.3132 -0.3860  0.0186
 2713DECAN   C727117   9.533   5.466   9.791  0.0773 -0.1262 -0.0231
 2713DECAN   C827118   9.400   5.493   9.718 -0.4458 -0.7335  0.6848
 2713DECAN   C927119   9.361   5.639   9.748  0.3131 -0.1978 -0.8042
 2713DECAN  C1027120   9.234   5.694   9.681 -0.3037 -0.3708  0.2070
 2714DECAN   C127121  10.701   6.981  12.000  0.2772  1.0168 -0.0234
 2714DECAN   C227122  10.662   6.956  12.146 -0.2152  0.3563 -0.2623
 2714DECAN   C327123  10.517   6.996  12.182 -0.0880  0.1810  0.4637
 2714DECAN   C427124  10.430   6.899  12.101  0.3880  0.0021  0.1651
 2714DECAN   C527125  10.481   6.862  11.960 -0.6419 -0.3468 -0.1239
 2714DECAN   C627126  10.408   6.735  11.915 -0.0576 -0.6879 -0.1155
 2714DECAN   C727127  10.267   6.754  11.855  0.1867  0.3026 -0.3932
 2714DECAN   C827128  10.170   6.793  11.967 -0.1643 -0.2862 -0.4864
 2714DECAN   C927129  10.022   6.811  11.926 -0.3223 -0.4404  0.0020
 2714DECAN  C1027130   9.930   6.833  12.047  0.2878 -0.2235  0.4296
 2715DECAN   C127131   7.570   2.035   5.084 -0.1273  0.3915  0.5814
 2715DECAN   C227132   7.487   1.907   5.102  0.4911 -0.1134 -0.0945
 2715DECAN   C327133   7.571   1.783   5.067 -0.6033 -0.4804 -1.5274
 2715DECAN   C427134   7.515   1.653   5.129 -0.3924  0.1261 -0.0300
 2715DECAN   C527135   7.529   1.650   5.282 -0.3501 -0.1954 -0.0389
 2715DECAN   C627136   7.505   1.512   5.345 -0.2526 -0.0613  0.2948
 2715DECAN   C727137   7.535   1.495   5.495 -0.6109 -0.0430  0.3711
 2715DECAN   C827138   7.484   1.608   5.587 -0.6509  0.2877 -0.0549
 2715DECAN   C927139   7.576   1.728   5.561 -0.2673 -0.0586 -0.3059
 2715DECAN  C1027140   7.527   1.843   5.650  0.0435 -0.7646  0.7999
 2716DECAN   C127141   5.975   6.731   8.005  0.2013  0.6713  0.3071
 2716DECAN   C227142   5.876   6.708   7.890  0.5551 -0.4269  0.2110
 2716DECAN   C327143   5.876   6.825   7.790  0.4120 -0.2013  0.4726
 2716DECAN   C427144   5.991   6.806   7.689  0.2174 -0.3814  0.2830
 2716DECAN   C527145   5.981   6.664   7.632  0.5306 -0.1666 -0.3233
 2716DECAN   C627146   6.051   6.563   7.726 -0.0510  0.0890  0.3925
 2716DECAN   C727147   6.021   6.416   7.692  0.1850  0.2336 -0.4695
 2716DECAN   C827148   5.872   6.376   7.687  0.2342  0.0312 -0.3286
 2716DECAN   C927149   5.837   6.237   7.631 -0.2799  0.1353 -0.2737
 2716DECAN  C1027150   5.851   6.125   7.735 -0.3792 -0.0722 -0.4825
 2717DECAN   C127151  10.190   7.390   6.660 -0.2285  0.0430 -0.5347
 2717DECAN   C227152  10.324   7.457   6.623 -0.1496 -0.1248 -0.5562
 2717DECAN   C327153  10.335   7.548   6.499 -0.3679  0.0442 -0.4534
 2717DECAN   C427154  10.320   7.453   6.379  0.2961 -0.2276 -0.3281
 2717DECAN   C527155  10.307   7.531   6.246  0.2847  0.4299  0.0571
 2717DECAN   C627156  10.271   7.451   6.119 -0.3425  0.3421  0.2870
 2717DECAN   C727157  10.232   7.544   6.003 -0.0642 -0.2436 -0.2778
 2717DECAN   C827158  10.234   7.472   5.867 -0.7484 -0.4955 -0.1558
 2717DECAN   C927159  10.212   7.560   5.743 -0.4184 -0.1337  0.0428
 2717DECAN  C1027160  10.200   7.464   5.623 -0.1673 -0.0423 -0.0572
 2718DECAN   C127161   8.733  10.562   4.973 -0.3535 -0.4113 -0.7473
 2718DECAN   C227162   8.718  10.714   4.952  0.6279 -0.3048 -0.7270
 2718DECAN   C327163   8.628  10.752   4.833  0.9006  0.1234 -0.7990
 2718DECAN   C427164   8.614  10.900   4.792 -0.3410  0.3235  0.2650
 2718DECAN   C527165   8.510  10.923   4.682 -0.0294 -0.0035 -0.1017
 2718DECAN   C627166   8.465  11.071   4.680  0.0661  0.0295  0.1718
 2718DECAN   C727167   8.583  11.161   4.636  0.0452 -0.0184  0.0156
 2718DECAN   C827168   8.545   0.066   4.640  0.0485 -0.0145 -0.0825
 2718DECAN   C927169   8.654   0.159   4.584 -0.2028  0.3555  0.0442
 2718DECAN  C1027170   8.618   0.308   4.601 -0.1991  0.4079 -0.4003
 2719DECAN   C127171   5.235   1.092   9.962  0.1837 -0.8931 -0.0388
 2719DECAN   C227172   5.387   1.079   9.942  0.2241 -0.6113  0.0766
 2719DECAN   C327173   5.475   1.201   9.975 -0.0443 -0.3967 -0.0003
 2719DECAN   C427174   5.628   1.187   9.979 -0.0265 -0.2056  0.0064
 2719DECAN   C527175   5.669   1.177   9.831  0.0029 -0.1084  0.0078
 2719DECAN   C627176   5.814   1.128   9.816  0.1235  0.3999 -0.5412
 2719DECAN   C727177   5.858   1.094   9.672 -0.2003  0.1819 -0.5906
 2719DECAN   C827178   5.983   1.004   9.663 -0.0722  0.3280 -0.2892
 2719DECAN   C927179   6.038   0.979   9.521 -0.0509  0.0602 -0.2325
 2719DECAN  C1027180   6.184   0.933   9.536 -0.1374 -0.1496 -0.0115
 2720DECAN   C127181   4.329   1.981  12.343 -0.4039 -0.3974  0.1952
 2720DECAN   C227182   4.253   2.112  12.317  0.1995 -0.0955 -0.0666
 2720DECAN   C327183   4.160   2.091  12.196  0.0447 -0.3685  0.0984
 2720DECAN   C427184   4.075   2.212  12.152  0.4175 -0.2317 -0.2477
 2720DECAN   C527185   3.979   2.176  12.037  0.2781 -0.4185 -0.0733
 2720DECAN   C627186   3.930   2.305  11.970  0.3868 -0.4305 -0.1755
 2720DECAN   C727187   3.803   2.298  11.882  0.0994  0.4925  0.1594
 2720DECAN   C827188   3.814   2.206  11.760  0.1195  0.5399  0.1255
 2720DECAN   C927189   3.934   2.231  11.667 -0.0941  0.0453 -0.2958
 2720DECAN  C1027190   3.951   2.148  11.539 -0.0056 -0.1415 -0.1635
 2721DECAN   C127191   7.864   0.764  10.568 -0.3532 -0.0708 -0.1215
 2721DECAN   C227192   7.932   0.653  10.486  0.0121  0.5878 -0.7271
 2721DECAN   C327193   7.834   0.616  10.372 -0.4052 -0.2123 -0.1259
 2721DECAN   C427194   7.881   0.496  10.288  0.0846 -0.2067  0.1373
 2721DECAN   C527195   7.799   0.478  10.159  0.0362 -0.0601  0.1473
 2721DECAN   C627196   7.837   0.350  10.082  0.1126  0.2081 -0.2591
 2721DECAN   C727197   7.862   0.220  10.160  0.3699  0.1454 -0.4456
 2721DECAN   C827198   7.866   0.099  10.065  0.3947 -0.1888 -0.0236
 2721DECAN   C927199   7.901  11.206  10.125 -0.3831 -0.1206  0.6118
 2721DECAN  C1027200   7.797  11.161  10.229 -0.2425 -0.1930  0.7220
 2722DECAN   C127201   7.297   1.191   7.784 -0.1234  0.6091  0.5116
 2722DECAN   C227202   7.418   1.275   7.830  0.5738 -0.1470  0.0875
 2722DECAN   C327203   7.414   1.419   7.774 -0.6576  0.1694  0.9532
 2722DECAN   C427204   7.320   1.528   7.830 -0.3128  0.7478  0.4119
 2722DECAN   C527205   7.173   1.486   7.816  0.1435 -0.8983  0.3236
 2722DECAN   C627206   7.071   1.563   7.903  0.1442 -0.0172 -0.4493
 2722DECAN   C727207   6.932   1.501   7.926  0.1946  0.0523  0.0342
 2722DECAN   C827208   6.918   1.352   7.962  0.2054  0.1132  0.2954
 2722DECAN   C927209   6.947   1.267   7.837 -0.5319  0.4660 -0.1207
 2722DECAN  C1027210   6.908   1.120   7.862  0.4469  0.1395 -0.4700
 2723DECAN   C127211   3.837   6.204   8.674 -0.2501 -0.3208 -0.1760
 2723DECAN   C227212   3.981   6.197   8.619 -0.1846  0.0621 -0.0590
 2723DECAN   C327213   4.003   6.105   8.497 -0.2423  0.1442 -0.1310
 2723DECAN   C427214   3.992   5.951   8.507 -0.6005  0.2103  0.6124
 2723DECAN   C527215   3.848   5.910   8.543 -0.7109  0.1365  0.1032
 2723DECAN   C627216   3.816   5.760   8.533  0.0253 -0.0106 -0.0517
 2723DECAN   C727217   3.895   5.692   8.647  0.2611  0.1704 -0.1061
 2723DECAN   C827218   3.829   5.572   8.718  0.2226 -0.2838 -0.8938
 2723DECAN   C927219   3.909   5.506   8.832 -0.1300  0.2899 -0.3043
 2723DECAN  C1027220   3.964   5.607   8.934  0.2886 -0.1045 -0.1343
 2724DECAN   C127221   2.752   4.152  13.237  0.5802 -0.0091 -0.5191
 2724DECAN   C227222   2.769   4.150  13.390 -0.1165  0.4599 -0.4321
 2724DECAN   C327223   2.649   4.169  13.485  0.2847  0.3363  0.0999
 2724DECAN   C427224   2.671   4.132  13.633  0.0453 -0.1527  0.0161
 2724DECAN   C527225   2.541   4.122  13.715 -0.0055 -0.3544 -0.0878
 2724DECAN   C627226   2.428   4.037  13.654 -0.5438  0.4756 -0.2726
 2724DECAN   C727227   2.296   4.021  13.732 -0.1903  0.2368  0.2904
 2724DECAN   C827228   2.211   4.147  13.754  0.0124  0.4294 -0.0258
 2724DECAN   C927229   2.072   4.100  13.800  0.3064 -0.3769  0.0474
 2724DECAN  C1027230   1.973   4.212  13.836  0.5085 -0.4011  0.6843
 2725DECAN   C127231   2.270  10.684  14.908 -0.2900  0.4016  0.2563
 2725DECAN   C227232   2.274  10.701  14.755 -0.2825 -0.0557  0.2020
 2725DECAN   C327233   2.401  10.645  14.690 -0.3440  0.0967 -0.0515
 2725DECAN   C427234   2.431  10.498  14.725 -0.4736  0.2107  0.5417
 2725DECAN   C527235   2.302  10.415  14.709 -0.1512 -0.1149 -0.5008
 2725DECAN   C627236   2.317  10.265  14.741  0.2318  0.0464  0.0965
 2725DECAN   C727237   2.182  10.198  14.711  0.3848 -0.3589  0.3076
 2725DECAN   C827238   2.184  10.045  14.724  0.0429 -0.4189 -0.3055
 2725DECAN   C927239   2.067   9.986  14.804  0.3244 -0.0719  0.3638
 2725DECAN  C1027240   2.068   9.832  14.807  0.3005 -0.0810 -0.0373
 2726DECAN   C127241   3.723  10.372  11.241  0.0956 -0.7726 -0.0167
 2726DECAN   C227242   3.724  10.274  11.360 -0.1564 -0.1805  0.4757
 2726DECAN   C327243   3.851  10.195  11.393 -0.0652 -0.3269 -0.2233
 2726DECAN   C427244   3.820  10.084  11.495 -0.1564  0.1271  0.2471
 2726DECAN   C527245   3.763  10.142  11.625 -0.3106  0.4640  0.0305
 2726DECAN   C627246   3.638  10.230  11.602 -0.2650  0.4673 -0.2046
 2726DECAN   C727247   3.587  10.305  11.726 -0.3353  0.3410 -0.1569
 2726DECAN   C827248   3.444  10.363  11.725 -0.4545  0.0595  0.4126
 2726DECAN   C927249   3.410  10.432  11.859 -0.3886 -0.2259  0.5779
 2726DECAN  C1027250   3.282  10.514  11.877 -0.1385  0.2205  0.3447
 2727DECAN   C127251   3.145   6.573   7.958  0.5115  0.5491  0.1007
 2727DECAN   C227252   3.067   6.703   7.928 -0.0912  0.1844  0.0587
 2727DECAN   C327253   3.041   6.796   8.048 -0.1028  0.2413  0.0120
 2727DECAN   C427254   2.953   6.911   7.996 -0.1898  0.2713  0.2254
 2727DECAN   C527255   2.913   7.020   8.098 -0.2763 -0.0534  0.5388
 2727DECAN   C627256   2.903   7.157   8.030  0.7539  0.0022  0.4777
 2727DECAN   C727257   2.869   7.284   8.110  0.1550  0.1215  0.0486
 2727DECAN   C827258   2.986   7.320   8.205  0.0877 -0.4722  0.3582
 2727DECAN   C927259   2.965   7.464   8.254  0.0532 -0.1644 -0.5503
 2727DECAN  C1027260   3.054   7.520   8.367 -0.3623 -0.2333 -0.1873
 2728DECAN   C127261   7.072   2.170   4.952 -0.4272 -0.0569 -0.0730
 2728DECAN   C227262   6.977   2.177   5.073 -0.4026 -0.4647 -0.0289
 2728DECAN   C327263   6.921   2.314   5.118 -0.1674 -0.4738  0.2968
 2728DECAN   C427264   6.827   2.389   5.021  0.0226 -0.2669  0.2718
 2728DECAN   C527265   6.899   2.424   4.890 -0.1107 -0.2957  0.1902
 2728DECAN   C627266   6.828   2.487   4.769  0.0331  0.0126  0.2652
 2728DECAN   C727267   6.933   2.523   4.662  0.0300 -1.0532 -0.1036
 2728DECAN   C827268   6.871   2.590   4.538 -0.3785 -0.3955  0.4522
 2728DECAN   C927269   6.769   2.700   4.575  0.4585  0.6131 -0.1919
 2728DECAN  C1027270   6.824   2.791   4.685  0.0601  0.3763  0.2087
 2729DECAN   C127271   3.525   9.184   7.975 -0.2293 -0.1037  0.2099
 2729DECAN   C227272   3.565   9.084   8.085  0.2740  0.3275  0.4255
 2729DECAN   C327273   3.628   8.957   8.025 -0.0666  0.3265  0.0688
 2729DECAN   C427274   3.536   8.881   7.928 -0.5870  0.6638  0.2932
 2729DECAN   C527275   3.518   8.952   7.793  0.4355  0.7938  0.2177
 2729DECAN   C627276   3.458   8.866   7.680  0.1576  0.4393  0.6322
 2729DECAN   C727277   3.459   8.937   7.543  0.3979 -0.3469  0.2128
 2729DECAN   C827278   3.408   8.868   7.415  0.4473  0.2331 -0.1240
 2729DECAN   C927279   3.506   8.764   7.359 -0.0717 -0.3804  0.0994
 2729DECAN  C1027280   3.471   8.707   7.220 -0.2056 -0.3423  0.1180
 2730DECAN   C127281   4.154   0.404   5.682  0.5021 -0.5143 -0.1987
 2730DECAN   C227282   4.120   0.423   5.533 -0.4251 -0.5500  0.0074
 2730DECAN   C327283   4.074   0.560   5.480  1.3146 -0.1364 -0.4818
 2730DECAN   C427284   4.032   0.540   5.333 -0.6967 -0.6735  0.1404
 2730DECAN   C527285   4.148   0.486   5.248 -0.4035  0.5607 -0.2582
 2730DECAN   C627286   4.191   0.351   5.308  0.4095  0.6865 -0.5475
 2730DECAN   C727287   4.332   0.307   5.263  0.1880 -0.1151 -0.4701
 2730DECAN   C827288   4.380   0.188   5.349  0.5150 -0.1642 -0.7170
 2730DECAN   C927289   4.309   0.057   5.309 -0.0993 -0.0820  0.0775
 2730DECAN  C1027290   4.349  11.176   5.391  0.6208 -0.0064 -0.1500
 2731DECAN   C127291   4.943   9.775  13.075  0.0271  0.7225  0.3770
 2731DECAN   C227292   5.042   9.780  13.192  0.4353  0.6422  0.0393
 2731DECAN   C327293   5.112   9.644  13.212 -0.3320  0.1828 -0.3599
 2731DECAN   C427294   5.026   9.521  13.244 -0.3052  0.2256 -0.1311
 2731DECAN   C527295   5.093   9.393  13.298  0.3022  0.5258 -0.1743
 2731DECAN   C627296   4.988   9.284  13.322  0.6609  0.2170  0.0104
 2731DECAN   C727297   4.910   9.263  13.190  0.0952  0.3923  0.3150
 2731DECAN   C827298   4.811   9.145  13.199  0.4281  0.0808 -0.0588
 2731DECAN   C927299   4.747   9.111  13.064 -0.2281 -0.4094  0.3672
 2731DECAN  C1027300   4.619   9.029  13.088 -0.3431 -0.2487  0.3077
 2732DECAN   C127301   9.687   3.837   7.979 -0.0023  0.0020  0.0317
 2732DECAN   C227302   9.693   3.722   7.877 -0.1277 -0.1932  0.2407
 2732DECAN   C327303   9.604   3.735   7.752 -0.2907  0.5312  0.4260
 2732DECAN   C427304   9.602   3.610   7.662 -0.1901  0.3548  0.6672
 2732DECAN   C527305   9.549   3.477   7.721 -0.0268 -0.0328 -0.0461
 2732DECAN   C627306   9.408   3.458   7.778  0.1468  0.2446  0.4863
 2732DECAN   C727307   9.394   3.312   7.825  0.6483  0.0891  0.1548
 2732DECAN   C827308   9.396   3.206   7.713 -0.1662 -0.3532  0.5496
 2732DECAN   C927309   9.405   3.059   7.756  0.6725 -0.3098  0.5420
 2732DECAN  C1027310   9.267   3.007   7.800  0.2793 -0.0748 -0.4001
 2733DECAN   C127311   1.497   9.762  13.929  0.0223  0.6096 -0.9386
 2733DECAN   C227312   1.626   9.834  13.972  0.0997 -0.3349  0.4576
 2733DECAN   C327313   1.723   9.754  14.061  0.2224 -0.1505  0.4905
 2733DECAN   C427314   1.845   9.825  14.122 -0.0607  0.4435  0.3759
 2733DECAN   C527315   1.819   9.898  14.255 -0.2414  0.4748  0.3217
 2733DECAN   C627316   1.928   9.994  14.307  0.1108  0.2685 -0.0279
 2733DECAN   C727317   2.067   9.930  14.297  0.0572  0.1398  0.0478
 2733DECAN   C827318   2.176  10.026  14.348  0.1867  0.0228 -0.0052
 2733DECAN   C927319   2.163  10.165  14.283 -0.1966  0.1385  0.3200
 2733DECAN  C1027320   2.282  10.261  14.307  0.0503 -0.0755 -0.0470
 2734DECAN   C127321   1.967   1.392  11.324 -0.2649 -0.0318  0.2381
 2734DECAN   C227322   1.832   1.369  11.253 -0.2767 -0.0127  0.2539
 2734DECAN   C327323   1.833   1.352  11.100  0.5131  0.2327  0.2275
 2734DECAN   C427324   1.687   1.337  11.054  0.6549  0.4661 -0.3097
 2734DECAN   C527325   1.669   1.303  10.905 -0.2085  0.2347 -0.1598
 2734DECAN   C627326   1.524   1.270  10.866 -0.3049  0.2463  0.1848
 2734DECAN   C727327   1.523   1.241  10.715  0.4469  0.1787  0.1914
 2734DECAN   C827328   1.643   1.157  10.666  0.0248 -0.2187 -0.1759
 2734DECAN   C927329   1.624   1.007  10.692 -0.3263 -0.1494 -0.0274
 2734DECAN  C1027330   1.699   0.912  10.597  0.1854  0.6188 -0.3983
 2735DECAN   C127331   6.378   8.246  14.729 -0.0014  0.2689 -0.1935
 2735DECAN   C227332   6.297   8.234  14.599  0.2419 -0.3653 -0.2896
 2735DECAN   C327333   6.239   8.368  14.550  0.2762 -0.1565  0.2294
 2735DECAN   C427334   6.189   8.348  14.405 -0.6780  0.1004  0.5164
 2735DECAN   C527335   6.157   8.481  14.335  0.0692 -0.0858 -0.1891
 2735DECAN   C627336   6.128   8.466  14.184 -0.4117  0.2055 -0.1280
 2735DECAN   C727337   6.123   8.598  14.105  0.3057  0.4396  0.2086
 2735DECAN   C827338   6.148   8.563  13.957  0.1030  0.2358  0.2207
 2735DECAN   C927339   6.186   8.676  13.860 -0.0784 -0.3921 -0.5883
 2735DECAN  C1027340   6.065   8.771  13.847  0.3116  0.0920 -0.7009
 2736DECAN   C127341   5.313   2.841   5.966  0.0070  0.2572 -0.6851
 2736DECAN   C227342   5.227   2.954   6.025 -0.3342  0.0260 -0.7412
 2736DECAN   C327343   5.095   2.939   5.947 -0.3113 -0.0046 -0.7744
 2736DECAN   C427344   4.981   3.028   6.003  0.1481 -0.2792  0.6303
 2736DECAN   C527345   4.843   3.034   5.937 -0.0955  0.0208  1.1632
 2736DECAN   C627346   4.759   3.151   5.993 -0.5196  0.2771  0.0228
 2736DECAN   C727347   4.815   3.291   5.963  0.3464 -0.0190  0.2269
 2736DECAN   C827348   4.805   3.333   5.815  0.2083 -0.0657  0.2232
 2736DECAN   C927349   4.857   3.474   5.782 -0.5011  0.1525  0.0147
 2736DECAN  C1027350   4.874   3.501   5.632  0.6275  0.1722  0.1348
 2737DECAN   C127351   2.132   2.991   6.549  0.6159  0.0126 -0.7077
 2737DECAN   C227352   2.111   2.843   6.515 -0.4145 -0.0328  0.0847
 2737DECAN   C327353   2.195   2.740   6.595  0.6748  0.3525 -0.5417
 2737DECAN   C427354   2.165   2.593   6.562  0.5534  0.2149  0.1830
 2737DECAN   C527355   2.247   2.494   6.647 -0.3056 -0.5904  0.0966
 2737DECAN   C627356   2.201   2.348   6.627 -0.3137 -0.5409 -0.2502
 2737DECAN   C727357   2.288   2.262   6.720  0.1125  0.3756  0.2155
 2737DECAN   C827358   2.216   2.126   6.731  0.4568  0.1162 -0.6996
 2737DECAN   C927359   2.234   2.038   6.606 -0.0163 -0.4760 -0.3572
 2737DECAN  C1027360   2.188   2.107   6.477  0.2445  0.4851  0.0537
 2738DECAN   C127361   9.720   8.371   8.625 -0.0322 -0.0645 -0.5493
 2738DECAN   C227362   9.872   8.389   8.606 -0.0501 -0.0113 -0.6433
 2738DECAN   C327363   9.899   8.523   8.535 -0.4880  0.0109 -0.7744
 2738DECAN   C427364  10.034   8.503   8.463  0.2307  0.0339  0.5226
 2738DECAN   C527365  10.127   8.621   8.430  0.0095  0.2283  0.5856
 2738DECAN   C627366  10.062   8.735   8.350  0.0971 -0.3212 -0.2845
 2738DECAN   C727367   9.932   8.763   8.429  0.4021 -0.0569  0.1284
 2738DECAN   C827368   9.861   8.875   8.350  0.0903 -0.1764  0.2399
 2738DECAN   C927369   9.871   8.843   8.200  0.4614 -0.2245  0.2720
 2738DECAN  C1027370   9.806   8.949   8.109 -0.2589 -0.6613  0.2754
 2739DECAN   C127371   5.033   1.920   5.584  0.9329  0.2037 -0.2709
 2739DECAN   C227372   4.976   2.014   5.477  0.1282 -0.0147 -0.0420
 2739DECAN   C327373   5.084   2.102   5.410 -0.0446  0.3501  0.1580
 2739DECAN   C427374   5.159   2.195   5.507 -0.0873  0.1312  0.4023
 2739DECAN   C527375   5.264   2.140   5.605 -0.3293 -0.1573  0.5030
 2739DECAN   C627376   5.389   2.079   5.539  0.1381  0.4677  0.8014
 2739DECAN   C727377   5.472   1.993   5.636 -0.0380 -0.3939  0.1961
 2739DECAN   C827378   5.595   1.919   5.581 -0.1521 -0.1596 -0.3749
 2739DECAN   C927379   5.699   2.013   5.517 -0.0976 -0.0294 -0.0930
 2739DECAN  C1027380   5.672   2.064   5.375  0.1789 -0.7179 -0.3971
 2740DECAN   C127381   5.693   5.028  13.251  0.2798  0.4023 -0.7173
 2740DECAN   C227382   5.655   4.922  13.146 -0.1826  0.0339 -0.1823
 2740DECAN   C327383   5.682   4.963  13.000 -0.1404  0.5233 -0.0381
 2740DECAN   C427384   5.672   4.840  12.908  0.3439  0.7699 -0.4259
 2740DECAN   C527385   5.777   4.730  12.931 -0.2300  0.2604 -0.2216
 2740DECAN   C627386   5.756   4.647  13.059 -0.3711 -0.0861 -0.4665
 2740DECAN   C727387   5.868   4.544  13.082 -0.2634  0.1136 -0.0818
 2740DECAN   C827388   5.849   4.437  13.190 -0.8931  0.7263  0.4210
 2740DECAN   C927389   5.716   4.369  13.153 -0.4385  0.0903 -0.0642
 2740DECAN  C1027390   5.706   4.344  13.001  0.0086 -0.2693 -0.0356
 2741DECAN   C127391   7.865   6.976  13.560  0.4425 -0.5519 -0.0959
 2741DECAN   C227392   7.987   7.038  13.491 -0.0967  0.2345 -0.3587
 2741DECAN   C327393   7.983   7.188  13.455 -0.2746  0.2677 -0.1977
 2741DECAN   C427394   8.116   7.207  13.381 -0.1550 -0.0109 -0.0526
 2741DECAN   C527395   8.130   7.356  13.345  0.4015 -0.0599 -0.0458
 2741DECAN   C627396   8.269   7.380  13.281  0.0625  0.0336 -0.7601
 2741DECAN   C727397   8.286   7.527  13.241 -0.3014  0.3536  0.2241
 2741DECAN   C827398   8.259   7.633  13.350  0.6328  0.3227  0.4983
 2741DECAN   C927399   8.292   7.771  13.291 -0.3902  0.2284 -0.3334
 2741DECAN  C1027400   8.300   7.891  13.388 -0.2568  0.1501 -0.2474
 2742DECAN   C127401   1.699   8.054  13.017 -0.3404  0.1278  0.6674
 2742DECAN   C227402   1.753   7.912  12.992  0.7392  0.6331  0.0647
 2742DECAN   C327403   1.900   7.885  13.028  0.5432 -0.0688  0.3400
 2742DECAN   C427404   1.944   7.748  12.972  0.5639  0.1347 -0.1450
 2742DECAN   C527405   1.894   7.708  12.833  0.8547 -0.2361 -0.1431
 2742DECAN   C627406   1.933   7.562  12.801  0.4399 -0.3440 -0.1578
 2742DECAN   C727407   1.891   7.534  12.655  0.1157  0.1340 -0.1603
 2742DECAN   C827408   2.016   7.549  12.567  0.1920  0.1289 -0.0534
 2742DECAN   C927409   2.003   7.478  12.430 -0.2025  0.1801 -0.0427
 2742DECAN  C1027410   2.021   7.325  12.435 -0.5835  0.1282 -0.3129
 2743DECAN   C127411   1.665   2.521   9.012 -0.3324  0.2160 -0.2680
 2743DECAN   C227412   1.788   2.436   8.973 -0.2827  0.0033  0.3495
 2743DECAN   C327413   1.906   2.529   8.939 -0.6002  0.2376 -0.1210
 2743DECAN   C427414   2.030   2.445   8.901 -0.3286  0.2440  0.7367
 2743DECAN   C527415   2.056   2.346   9.016 -0.6693 -0.6036  0.0974
 2743DECAN   C627416   2.180   2.255   9.020 -0.8194 -0.8205 -0.1229
 2743DECAN   C727417   2.203   2.196   9.161 -0.6447  0.2937  0.3285
 2743DECAN   C827418   2.333   2.114   9.158 -0.4086  0.6584  0.5679
 2743DECAN   C927419   2.461   2.196   9.136 -0.0203 -0.1873 -0.4150
 2743DECAN  C1027420   2.592   2.117   9.155 -0.2176 -0.4183 -0.0122
 2744DECAN   C127421   6.149   6.620  13.725  0.3964 -0.2157 -0.0589
 2744DECAN   C227422   6.030   6.605  13.823  0.3502  0.0219 -0.0780
 2744DECAN   C327423   6.034   6.676  13.959 -0.3546 -0.3470  0.1399
 2744DECAN   C427424   5.900   6.675  14.034 -0.3991  0.5212  0.0815
 2744DECAN   C527425   5.800   6.786  13.993 -0.0316  0.4664 -0.9970
 2744DECAN   C627426   5.661   6.767  14.056  0.1601  0.1267 -0.6712
 2744DECAN   C727427   5.572   6.658  13.994 -0.0045  0.2178 -0.5962
 2744DECAN   C827428   5.422   6.667  14.027  0.0893 -0.2606 -0.0226
 2744DECAN   C927429   5.382   6.667  14.176 -0.2964  0.2048 -0.1238
 2744DECAN  C1027430   5.472   6.768  14.251 -0.6502 -0.0524  0.6583
 2745DECAN   C127431   6.703   9.551  13.691 -0.6307  0.1627  0.7253
 2745DECAN   C227432   6.660   9.409  13.733  0.5000 -0.4482 -0.1097
 2745DECAN   C327433   6.668   9.401  13.887 -0.5596  0.6935  0.0197
 2745DECAN   C427434   6.614   9.265  13.935  0.4282  0.4150  0.3619
 2745DECAN   C527435   6.701   9.144  13.895 -0.6127 -0.2836  0.1549
 2745DECAN   C627436   6.691   9.123  13.743  0.3190  0.2091  0.0155
 2745DECAN   C727437   6.775   9.002  13.696  0.3222  0.3572 -0.3639
 2745DECAN   C827438   6.724   8.865  13.745  0.0790  0.5669 -0.0287
 2745DECAN   C927439   6.594   8.818  13.677  0.1898 -0.1019  0.2214
 2745DECAN  C1027440   6.544   8.674  13.703 -0.1988 -0.0549 -0.2636
 2746DECAN   C127441   7.872  10.982  12.874  0.0396 -0.0064 -0.3771
 2746DECAN   C227442   7.992  10.893  12.911 -0.1333 -0.2342 -0.3644
 2746DECAN   C327443   8.046  10.822  12.786 -0.0040 -0.0855 -0.3950
 2746DECAN   C427444   8.133  10.911  12.696 -0.0888  0.0072 -0.3838
 2746DECAN   C527445   8.226  10.839  12.596  0.2130  0.0250 -0.1174
 2746DECAN   C627446   8.330  10.938  12.539  0.3450  0.1488  0.3344
 2746DECAN   C727447   8.424  10.881  12.432  0.5208 -0.5637  0.8542
 2746DECAN   C827448   8.526  10.974  12.362 -0.4385 -0.0794  0.0652
 2746DECAN   C927449   8.572  10.923  12.224  0.3087 -0.1642  0.3407
 2746DECAN  C1027450   8.667  11.033  12.171 -0.2582  0.3227  0.3212
 2747DECAN   C127451   1.532   7.590  13.220 -0.2676  0.4275  0.3708
 2747DECAN   C227452   1.619   7.651  13.331  0.1700  0.2266  0.1398
 2747DECAN   C327453   1.770   7.625  13.314  0.0197 -0.1755 -0.6259
 2747DECAN   C427454   1.862   7.719  13.394 -0.3885 -0.2327 -0.0848
 2747DECAN   C527455   2.007   7.724  13.343 -0.3464  0.0476  0.0566
 2747DECAN   C627456   2.098   7.600  13.356 -0.4912 -0.0270  0.3732
 2747DECAN   C727457   2.050   7.485  13.265 -0.2621 -0.1194  0.3671
 2747DECAN   C827458   2.114   7.348  13.291  0.1547  0.0640  0.3156
 2747DECAN   C927459   2.079   7.228  13.201 -0.5933  0.4111  0.1378
 2747DECAN  C1027460   1.962   7.132  13.228 -0.6085  0.6143  0.8006
 2748DECAN   C127461  10.846   7.296   7.976 -0.2635 -0.0434 -0.0463
 2748DECAN   C227462  10.865   7.302   8.129  0.2359  0.1331 -0.1135
 2748DECAN   C327463  10.921   7.166   8.174 -0.0335 -0.0036 -0.1890
 2748DECAN   C427464  10.912   7.147   8.326  0.0269  0.6537 -0.1004
 2748DECAN   C527465  10.979   7.014   8.366 -0.7025  0.3958  0.3006
 2748DECAN   C627466  11.024   6.995   8.512  0.1007 -0.4821 -0.0533
 2748DECAN   C727467  11.083   6.855   8.538 -0.0744 -0.4811  0.3621
 2748DECAN   C827468  11.143   6.836   8.679 -0.2083  0.1237  0.5036
 2748DECAN   C927469  11.182   6.687   8.680 -0.2055  0.1260  0.7425
 2748DECAN  C1027470  11.249   6.633   8.807  0.1190 -0.1280  0.4662
 2749DECAN   C127471   3.739   4.146   9.461  0.0919  0.0018 -0.3027
 2749DECAN   C227472   3.875   4.173   9.529  0.1603 -0.2111 -0.3558
 2749DECAN   C327473   3.908   4.321   9.556  0.0516 -0.2359 -0.0785
 2749DECAN   C427474   3.801   4.398   9.636 -0.0704  0.2615 -0.7146
 2749DECAN   C527475   3.852   4.536   9.683  0.3553 -0.1535  0.0563
 2749DECAN   C627476   3.849   4.639   9.569 -0.5484 -0.2302  0.0002
 2749DECAN   C727477   3.878   4.788   9.594  0.0833 -0.4315  0.5025
 2749DECAN   C827478   3.770   4.858   9.678 -0.1115 -0.2658  0.1185
 2749DECAN   C927479   3.811   4.988   9.752 -0.0320  0.0789 -0.5269
 2749DECAN  C1027480   3.863   4.957   9.893 -0.0502  0.3113 -0.4703
 2750DECAN   C127481   9.191   1.420  10.643  0.1265  0.1760 -0.7907
 2750DECAN   C227482   9.196   1.279  10.582 -0.4731 -0.1132 -0.1938
 2750DECAN   C327483   9.055   1.227  10.547 -0.5902  0.0194  0.0830
 2750DECAN   C427484   9.060   1.088  10.482 -0.6820 -0.0694  0.2656
 2750DECAN   C527485   8.945   1.058  10.384 -0.3134 -0.0377 -0.1768
 2750DECAN   C627486   8.931   1.150  10.261  0.4264 -0.2454 -0.4190
 2750DECAN   C727487   8.919   1.300  10.294  0.3986 -0.2893 -0.2277
 2750DECAN   C827488   8.946   1.375  10.162  0.1646  0.5352  0.1877
 2750DECAN   C927489   8.836   1.335  10.062  0.2351 -0.1277  0.3743
 2750DECAN  C1027490   8.703   1.408  10.090  0.0985  0.0033 -0.5897
 2751DECAN   C127491   3.733   6.333   6.861 -0.5095  0.9996 -0.5745
 2751DECAN   C227492   3.857   6.325   6.770 -0.3193 -0.6600 -0.2060
 2751DECAN   C327493   3.910   6.181   6.766 -0.3320 -0.7039  0.9232
 2751DECAN   C427494   3.842   6.102   6.652  0.1506 -0.0865  0.2046
 2751DECAN   C527495   3.867   5.950   6.644  0.4301 -0.0178 -0.3161
 2751DECAN   C627496   3.834   5.874   6.515  0.3824 -0.0301 -0.2971
 2751DECAN   C727497   3.850   5.722   6.537 -0.4909 -0.0473  0.2696
 2751DECAN   C827498   3.834   5.632   6.413 -0.0364  0.1475  0.0655
 2751DECAN   C927499   3.854   5.480   6.427  0.6141  0.1969 -0.2972
 2751DECAN  C1027500   3.998   5.460   6.480  0.5840  0.3777 -0.1480
 2752DECAN   C127501   9.465   5.498  10.119 -0.4197 -0.0451 -0.0306
 2752DECAN   C227502   9.461   5.614  10.221 -0.1054 -0.0964  0.0419
 2752DECAN   C327503   9.451   5.755  10.162 -0.0568 -0.2517 -0.3344
 2752DECAN   C427504   9.450   5.853  10.281  0.0509 -0.1462 -0.4196
 2752DECAN   C527505   9.307   5.842  10.338  0.1532 -0.4174 -0.2129
 2752DECAN   C627506   9.299   5.860  10.491 -0.7295  0.1356 -0.3178
 2752DECAN   C727507   9.376   5.753  10.572 -0.3525  0.1405 -0.6654
 2752DECAN   C827508   9.341   5.746  10.722 -0.3778  0.0893 -0.6735
 2752DECAN   C927509   9.204   5.686  10.757 -0.3721  0.6022  0.2570
 2752DECAN  C1027510   9.086   5.780  10.728 -0.1104  0.6861 -0.5631
 2753DECAN   C127511   6.759   2.583   9.602  0.2777  0.1941  0.0956
 2753DECAN   C227512   6.732   2.507   9.734  0.1968 -0.3384 -0.2279
 2753DECAN   C327513   6.835   2.394   9.755  0.5007  0.1309  0.8324
 2753DECAN   C427514   6.824   2.302   9.878  0.1339 -0.1408  0.5982
 2753DECAN   C527515   6.829   2.381  10.010  0.2554  0.1802  0.4032
 2753DECAN   C627516   6.839   2.293  10.136 -0.3613 -0.3348  0.0971
 2753DECAN   C727517   6.977   2.224  10.137 -0.2287 -0.0631  0.5467
 2753DECAN   C827518   7.008   2.150  10.006 -0.1171  0.2385  0.3992
 2753DECAN   C927519   7.157   2.117   9.984 -0.2545 -0.1559  0.0340
 2753DECAN  C1027520   7.231   2.082  10.114  0.2835  0.1951 -0.1724
 2754DECAN   C127521   8.869   8.432   4.332 -0.2406 -0.1013  0.9756
 2754DECAN   C227522   9.018   8.403   4.354  0.1645  0.4855 -0.8359
 2754DECAN   C327523   9.085   8.285   4.280 -0.4624 -0.2334 -0.2760
 2754DECAN   C427524   9.088   8.307   4.127  0.4966  0.3455 -0.1831
 2754DECAN   C527525   8.951   8.335   4.062  0.2429  0.2196  0.2902
 2754DECAN   C627526   8.961   8.373   3.913 -0.0136 -0.0538  0.2018
 2754DECAN   C727527   8.824   8.407   3.851  0.4063  0.1480 -0.6293
 2754DECAN   C827528   8.793   8.549   3.901  0.4462 -0.1669  0.3084
 2754DECAN   C927529   8.642   8.577   3.891  0.5205  0.2559  0.3416
 2754DECAN  C1027530   8.585   8.699   3.966 -0.7378 -0.1305  0.0343
 2755DECAN   C127531   5.144   0.852  10.300  0.0549  0.4408 -0.3507
 2755DECAN   C227532   5.070   0.788  10.419 -0.2037  1.1187 -0.1405
 2755DECAN   C327533   4.942   0.719  10.368  0.4731 -0.1130 -0.2251
 2755DECAN   C427534   4.961   0.618  10.254 -0.0840 -0.1326 -0.3026
 2755DECAN   C527535   4.836   0.547  10.200 -0.2338 -0.3581  0.3279
 2755DECAN   C627536   4.893   0.447  10.098  0.1278  0.1945 -0.0199
 2755DECAN   C727537   4.975   0.339  10.171  0.7198  0.3867 -0.3938
 2755DECAN   C827538   5.016   0.235  10.065  0.2585  0.0527 -0.2474
 2755DECAN   C927539   5.112   0.121  10.103 -0.0019  0.0930  0.5427
 2755DECAN  C1027540   5.176   0.058   9.978  0.2034  0.2132  0.5852
 2756DECAN   C127541   4.481   6.291   8.642 -0.2971  0.2520 -0.6022
 2756DECAN   C227542   4.366   6.262   8.740  0.1131 -0.2206 -0.2561
 2756DECAN   C327543   4.391   6.332   8.876  0.0485 -0.0321 -0.3402
 2756DECAN   C427544   4.477   6.244   8.968 -0.5062 -0.4895 -0.2471
 2756DECAN   C527545   4.554   6.330   9.070 -0.7598 -0.3193 -0.1990
 2756DECAN   C627546   4.618   6.238   9.175 -0.1670 -0.0570 -0.3246
 2756DECAN   C727547   4.677   6.316   9.295  0.0492  0.1443 -0.5619
 2756DECAN   C827548   4.696   6.216   9.411 -0.0697  0.2414 -0.4581
 2756DECAN   C927549   4.728   6.290   9.542  0.1722 -0.0752 -0.3377
 2756DECAN  C1027550   4.698   6.220   9.676  0.2080  0.4927 -0.0304
 2757DECAN   C127551   2.782   2.416  13.083  0.3220  0.4434  1.2519
 2757DECAN   C227552   2.685   2.535  13.087  0.4864  0.6513 -0.1719
 2757DECAN   C327553   2.611   2.549  12.953 -0.4776 -0.0372  0.2712
 2757DECAN   C427554   2.514   2.668  12.951 -0.4224  0.0052 -0.0344
 2757DECAN   C527555   2.581   2.806  12.964  0.0086 -0.2024 -0.0344
 2757DECAN   C627556   2.474   2.916  12.975  0.3352  0.1091  0.0396
 2757DECAN   C727557   2.532   3.058  12.956 -0.0886  0.2275 -0.3969
 2757DECAN   C827558   2.424   3.163  12.987 -0.6957 -0.6182  0.3933
 2757DECAN   C927559   2.464   3.311  12.979 -0.1946 -0.7626  0.2281
 2757DECAN  C1027560   2.350   3.402  13.029  0.1618 -0.2308  0.0796
 2758DECAN   C127561   7.480   7.132  11.725  0.3348  0.0481  0.1478
 2758DECAN   C227562   7.500   7.023  11.832  0.1689 -0.2712 -0.1448
 2758DECAN   C327563   7.644   6.971  11.839  0.2042 -0.2280 -0.5069
 2758DECAN   C427564   7.685   6.903  11.708  0.1858 -0.0306 -0.6148
 2758DECAN   C527565   7.824   6.840  11.728  0.1913  0.2015  0.0788
 2758DECAN   C627566   7.939   6.931  11.775  0.2116  0.3226 -0.2072
 2758DECAN   C727567   8.072   6.856  11.800 -0.5075 -0.9914 -0.2314
 2758DECAN   C827568   8.124   6.794  11.669  0.6337 -0.0407 -0.2490
 2758DECAN   C927569   8.152   6.898  11.560  0.0809  0.1518 -0.2133
 2758DECAN  C1027570   8.175   6.837  11.421  0.0981 -0.3930  0.0294
 2759DECAN   C127571  10.635   4.329   9.117 -0.2696 -0.1855 -0.4286
 2759DECAN   C227572  10.588   4.277   9.254  0.6367 -0.1719 -0.1115
 2759DECAN   C327573  10.602   4.125   9.274 -0.0944 -0.2482 -0.1728
 2759DECAN   C427574  10.523   4.077   9.397  0.4005  0.3101  0.3607
 2759DECAN   C527575  10.403   4.168   9.430  0.2208  0.1350  0.1820
 2759DECAN   C627576  10.349   4.133   9.570  0.5433  0.1000  0.2982
 2759DECAN   C727577  10.311   3.984   9.579  0.5152  0.0767 -0.1955
 2759DECAN   C827578  10.317   3.908   9.712 -0.6456  0.1318 -0.0994
 2759DECAN   C927579  10.327   3.756   9.690 -0.0789  0.1507  0.0065
 2759DECAN  C1027580  10.300   3.655   9.802  1.0289 -0.2944 -0.1230
 2760DECAN   C127581   7.907   9.490   5.587 -0.2909  0.0325 -0.8725
 2760DECAN   C227582   7.829   9.538   5.711 -0.0246  0.0181 -0.6986
 2760DECAN   C327583   7.737   9.655   5.670 -0.4700 -0.3142 -0.6627
 2760DECAN   C427584   7.673   9.698   5.803  0.1410  0.3484 -0.5766
 2760DECAN   C527585   7.738   9.826   5.859 -0.1385  0.1658  0.1738
 2760DECAN   C627586   7.687   9.866   5.999 -0.0246  0.0504  0.2497
 2760DECAN   C727587   7.535   9.891   6.000  0.0666  0.6374  0.0326
 2760DECAN   C827588   7.467   9.765   5.944  0.2353  0.7299 -0.3806
 2760DECAN   C927589   7.314   9.767   5.928  0.0645 -0.4679  0.9665
 2760DECAN  C1027590   7.271   9.632   5.868  0.2602 -0.1372  0.0777
 2761DECAN   C127591   9.166  10.354  12.537  0.4009 -0.2668 -0.1917
 2761DECAN   C227592   9.016  10.375  12.569  0.4292  0.2279 -0.3692
 2761DECAN   C327593   8.937  10.288  12.470 -0.2111  0.4203 -0.0296
 2761DECAN   C427594   8.810  10.356  12.415 -0.2330  0.0798 -0.4022
 2761DECAN   C527595   8.820  10.501  12.364  0.2229  0.0387 -0.4362
 2761DECAN   C627596   8.817  10.597  12.484  1.1841 -0.4114 -0.0447
 2761DECAN   C727597   8.864  10.740  12.453 -0.2173  0.0006 -0.2995
 2761DECAN   C827598   8.884  10.838  12.570 -0.0189 -0.1678 -0.1940
 2761DECAN   C927599   8.961  10.780  12.691 -0.2450 -0.8296 -0.3672
 2761DECAN  C1027600   8.996  10.873  12.808 -0.6045 -0.8513 -0.2429
 2762DECAN   C127601   9.338   1.349  13.861 -0.1299 -0.5967  0.0783
 2762DECAN   C227602   9.473   1.337  13.934 -0.0010  0.1094 -0.0444
 2762DECAN   C327603   9.459   1.404  14.072  0.0159  1.0286 -0.4756
 2762DECAN   C427604   9.597   1.417  14.139 -0.5281  0.6397  0.7429
 2762DECAN   C527605   9.628   1.485  14.274  0.2917  0.0925  0.8371
 2762DECAN   C627606   9.763   1.436  14.330  0.5235  0.5604  0.6883
 2762DECAN   C727607   9.883   1.477  14.243  0.6188 -0.2402  0.4326
 2762DECAN   C827608   9.883   1.422  14.099 -0.0959  0.2456  0.2414
 2762DECAN   C927609   9.945   1.281  14.095  0.2975  0.4450 -0.9689
 2762DECAN  C1027610   9.984   1.248  13.950 -0.2155 -0.4953 -0.9007
 2763DECAN   C127611   5.744   3.594   5.065  0.2059  0.1863  0.2982
 2763DECAN   C227612   5.616   3.509   5.055  0.2620  0.0032  1.0592
 2763DECAN   C327613   5.645   3.364   5.012  0.3463  0.3973 -0.2587
 2763DECAN   C427614   5.512   3.289   4.996  0.3087  0.4759 -0.3196
 2763DECAN   C527615   5.526   3.143   4.952 -0.5993  0.2202  0.1982
 2763DECAN   C627616   5.398   3.063   4.922 -0.2007 -0.2528 -0.2715
 2763DECAN   C727617   5.409   2.919   4.868 -0.9568 -0.3333 -0.2215
 2763DECAN   C827618   5.482   2.821   4.962 -0.0070  0.1605 -0.4294
 2763DECAN   C927619   5.551   2.698   4.901  0.1556 -0.2031  0.4713
 2763DECAN  C1027620   5.438   2.606   4.848 -0.1163  0.4607 -0.1148
 2764DECAN   C127621   5.963   4.756  14.527  0.0984  0.3642  0.2869
 2764DECAN   C227622   5.846   4.698  14.608  0.1400  0.1073  0.1668
 2764DECAN   C327623   5.783   4.572  14.545  0.2664 -0.1166  0.4832
 2764DECAN   C427624   5.657   4.522  14.616 -0.3694  0.4159 -0.2521
 2764DECAN   C527625   5.584   4.400  14.556 -0.1585  0.1787 -0.0277
 2764DECAN   C627626   5.518   4.423  14.419  0.2995  0.1828 -0.2472
 2764DECAN   C727627   5.442   4.294  14.382 -0.2221  0.3106  0.3692
 2764DECAN   C827628   5.355   4.323  14.258 -0.3054  0.1516  0.3914
 2764DECAN   C927629   5.433   4.394  14.145  0.0096  0.3574  0.7372
 2764DECAN  C1027630   5.536   4.299  14.081 -0.4551  0.1977  0.2193
 2765DECAN   C127631   2.095   8.680  12.038  0.1158  0.0407  0.1652
 2765DECAN   C227632   2.033   8.553  12.098  0.1080  0.1292  0.3461
 2765DECAN   C327633   2.005   8.559  12.249 -0.3943  0.3273  0.2471
 2765DECAN   C427634   1.944   8.424  12.290 -0.1998  0.2422  0.2580
 2765DECAN   C527635   1.922   8.389  12.438  0.2584 -0.5001  0.1569
 2765DECAN   C627636   2.050   8.396  12.524  0.5498 -0.1004 -0.3044
 2765DECAN   C727637   2.102   8.537  12.558 -0.0765  0.1176 -0.2474
 2765DECAN   C827638   2.220   8.552  12.655 -0.1809 -0.1146 -0.0818
 2765DECAN   C927639   2.271   8.697  12.662  0.4705 -0.2878 -0.9090
 2765DECAN  C1027640   2.164   8.808  12.673  0.9914  0.1793 -0.4845
 2766DECAN   C127641   6.433   1.874   8.176  0.4081 -0.3604 -0.8579
 2766DECAN   C227642   6.326   1.763   8.173  0.3026 -0.3252  0.5351
 2766DECAN   C327643   6.267   1.752   8.031  0.3236  0.8381  0.4307
 2766DECAN   C427644   6.130   1.686   8.049  0.5260  0.3065  0.0358
 2766DECAN   C527645   6.141   1.548   8.117  0.0382  0.0973 -0.3029
 2766DECAN   C627646   6.023   1.452   8.091 -0.0162  0.2424 -0.5888
 2766DECAN   C727647   6.027   1.321   8.171  0.0962  0.3307 -0.4479
 2766DECAN   C827648   6.147   1.233   8.130 -0.0033  0.1106 -0.2697
 2766DECAN   C927649   6.129   1.090   8.184 -0.3762  0.2162 -0.1074
 2766DECAN  C1027650   6.262   1.014   8.193 -0.1739  0.6479  0.6302
 2767DECAN   C127651   8.433   6.596  11.585  0.0502 -0.3418  0.1762
 2767DECAN   C227652   8.492   6.626  11.724  0.1979 -0.5788  0.1662
 2767DECAN   C327653   8.613   6.719  11.703 -0.2541 -0.0341 -0.0564
 2767DECAN   C427654   8.690   6.741  11.834  0.5245  0.7823 -0.6449
 2767DECAN   C527655   8.592   6.776  11.947  0.4453  0.2281 -0.5414
 2767DECAN   C627656   8.507   6.667  12.015 -0.1207  0.6224 -0.6060
 2767DECAN   C727657   8.422   6.700  12.139 -0.0046  0.0870 -0.3782
 2767DECAN   C827658   8.299   6.609  12.152 -0.1508  0.3379  0.0236
 2767DECAN   C927659   8.199   6.645  12.263 -0.1463  0.2113  0.0693
 2767DECAN  C1027660   8.128   6.781  12.250  0.5566  0.5232 -0.6154
 2768DECAN   C127661   3.781  10.549   9.303  0.5094  0.3003 -0.1345
 2768DECAN   C227662   3.769  10.628   9.171 -0.1004  0.2418 -0.1161
 2768DECAN   C327663   3.747  10.539   9.047  0.0700  0.2298 -0.1387
 2768DECAN   C427664   3.764  10.613   8.913  0.3526  0.3216 -0.0523
 2768DECAN   C527665   3.731  10.522   8.794  0.3559  0.3451 -0.0721
 2768DECAN   C627666   3.752  10.588   8.656  0.4229 -0.2258 -0.3407
 2768DECAN   C727667   3.879  10.674   8.642 -0.0114  0.4151 -0.3861
 2768DECAN   C827668   3.889  10.745   8.505  0.2042  0.1933 -0.4859
 2768DECAN   C927669   4.002  10.849   8.498  0.4399 -0.0093  0.2201
 2768DECAN  C1027670   4.024  10.907   8.357  0.2327 -0.2119  0.1033
 2769DECAN   C127671   5.464   1.844   5.176  0.0513  0.2767  0.4065
 2769DECAN   C227672   5.369   1.818   5.058  0.1971  0.1050  0.3269
 2769DECAN   C327673   5.228   1.843   5.114  0.0799  0.3934 -0.0895
 2769DECAN   C427674   5.115   1.867   5.011 -0.0590 -0.9011 -0.2545
 2769DECAN   C527675   4.975   1.901   5.064  0.2231 -0.3308  0.1466
 2769DECAN   C627676   4.904   1.779   5.126  0.3292 -0.2976  0.3316
 2769DECAN   C727677   4.771   1.813   5.196  0.3148  0.5880 -0.1129
 2769DECAN   C827678   4.672   1.892   5.109  0.2217  0.2999 -0.2710
 2769DECAN   C927679   4.550   1.947   5.185  0.2035 -0.2309  0.0861
 2769DECAN  C1027680   4.471   2.060   5.116  0.2292 -0.4081 -0.2338
 2770DECAN   C127681   5.930   5.304   4.114 -0.6348 -0.1815  0.1746
 2770DECAN   C227682   5.939   5.458   4.109 -0.4764 -0.1975 -0.0251
 2770DECAN   C327683   5.853   5.521   4.220 -0.3585  0.2030 -0.1598
 2770DECAN   C427684   5.888   5.666   4.258 -0.5040  0.1186  0.3006
 2770DECAN   C527685   5.805   5.719   4.376 -0.4941  0.0837  0.3228
 2770DECAN   C627686   5.833   5.862   4.425 -0.6367  0.4746 -0.7128
 2770DECAN   C727687   5.747   5.911   4.543  0.0518  0.5056 -0.2186
 2770DECAN   C827688   5.735   6.063   4.566 -0.5787  0.4483 -0.1324
 2770DECAN   C927689   5.690   6.146   4.445 -0.2412 -0.0113 -0.5788
 2770DECAN  C1027690   5.677   6.296   4.476  0.5271 -0.1242  0.3339
 2771DECAN   C127691   5.392   5.561   5.137 -0.3901  0.2139 -0.3770
 2771DECAN   C227692   5.328   5.622   5.011 -0.0605  0.4253 -0.4432
 2771DECAN   C327693   5.181   5.665   5.010 -0.2955 -0.3557 -0.2527
 2771DECAN   C427694   5.122   5.723   4.879  0.0707 -0.3578 -0.4183
 2771DECAN   C527695   5.163   5.868   4.848 -0.4551  0.1328  1.0894
 2771DECAN   C627696   5.149   5.923   4.705  0.0125  0.1307  1.0418
 2771DECAN   C727697   5.162   6.076   4.695  0.0137  0.0788  0.1717
 2771DECAN   C827698   5.150   6.114   4.546  0.3000  0.0238  0.1343
 2771DECAN   C927699   5.017   6.079   4.476  0.2352 -0.1631  0.3500
 2771DECAN  C1027700   5.013   6.077   4.322  0.5575  0.4395  0.3305
 2772DECAN   C127701  10.182   6.093   7.441 -0.3837  0.0474 -0.0716
 2772DECAN   C227702  10.102   5.963   7.458  0.2686 -0.3321  0.1403
 2772DECAN   C327703   9.990   5.952   7.353  0.2407 -0.1185  0.1479
 2772DECAN   C427704   9.985   5.838   7.249  0.6290  0.1860 -0.2072
 2772DECAN   C527705   9.876   5.852   7.142  0.0044  0.5788  0.4715
 2772DECAN   C627706   9.729   5.829   7.184  0.0141  0.0417  0.2124
 2772DECAN   C727707   9.625   5.907   7.102 -0.1213  0.4109  0.7314
 2772DECAN   C827708   9.640   6.060   7.096  0.4120  0.3257 -0.4928
 2772DECAN   C927709   9.507   6.132   7.067  0.0790 -0.1724 -0.2110
 2772DECAN  C1027710   9.406   6.123   7.183 -0.0813 -0.2741 -0.3581
 2773DECAN   C127711   3.386   1.362   6.433  0.0130  0.1651  0.1320
 2773DECAN   C227712   3.419   1.425   6.296  0.5720 -0.7353 -0.1541
 2773DECAN   C327713   3.335   1.358   6.186  0.1508 -0.4395 -0.0135
 2773DECAN   C427714   3.357   1.425   6.049 -0.4142  0.0227  0.1162
 2773DECAN   C527715   3.284   1.346   5.938 -0.4908 -0.0572  0.2227
 2773DECAN   C627716   3.370   1.289   5.823 -0.5780 -0.2281  0.2419
 2773DECAN   C727717   3.472   1.178   5.855 -0.4757 -0.1656  0.1339
 2773DECAN   C827718   3.551   1.143   5.728 -0.5087 -0.1974  0.1220
 2773DECAN   C927719   3.465   1.133   5.601  0.2722  0.0384 -0.4272
 2773DECAN  C1027720   3.529   1.073   5.474  0.3089  0.3829 -0.5730
 2774DECAN   C127721   9.027  10.346   4.302  0.1007 -0.1349 -0.8633
 2774DECAN   C227722   9.171  10.391   4.273  0.4547 -0.6409  0.0741
 2774DECAN   C327723   9.166  10.470   4.141 -0.0617  0.2810  0.6375
 2774DECAN   C427724   9.128  10.618   4.155 -0.4698  0.1886  0.5519
 2774DECAN   C527725   9.120  10.697   4.024  0.5260 -0.1955  0.2480
 2774DECAN   C627726   9.056  10.835   4.050  0.0501 -0.4321  0.3506
 2774DECAN   C727727   9.148  10.943   4.112 -0.2525 -0.1279  0.2721
 2774DECAN   C827728   9.227  10.893   4.234  0.2385 -0.1365 -0.0484
 2774DECAN   C927729   9.305  11.014   4.290 -0.5110  0.2795  0.1042
 2774DECAN  C1027730   9.383  10.973   4.416 -0.1530 -0.0385 -0.2193
 2775DECAN   C127731   9.374   3.503   9.642 -0.0096  0.4316  0.2818
 2775DECAN   C227732   9.424   3.622   9.557 -0.2593  0.4299  0.1314
 2775DECAN   C327733   9.415   3.585   9.408  0.0066  0.3568  0.1332
 2775DECAN   C427734   9.438   3.705   9.314  0.7683  0.0957 -0.0207
 2775DECAN   C527735   9.314   3.793   9.291  0.3380 -0.5210 -0.0610
 2775DECAN   C627736   9.321   3.915   9.198  0.3108  0.0253  0.6434
 2775DECAN   C727737   9.190   3.997   9.196  0.7136  0.6670 -0.0550
 2775DECAN   C827738   9.187   4.093   9.076 -0.0609 -0.2014 -0.7377
 2775DECAN   C927739   9.062   4.183   9.079 -0.0383 -0.1842 -0.2533
 2775DECAN  C1027740   9.066   4.305   8.984 -0.0471 -0.2230 -0.3039
 2776DECAN   C127741   1.402   0.935   8.280  0.0305  0.3667  0.1356
 2776DECAN   C227742   1.548   0.984   8.266  0.1283  0.0024 -0.1377
 2776DECAN   C327743   1.615   1.007   8.403  0.7123  0.3142 -0.4751
 2776DECAN   C427744   1.528   1.117   8.468  0.4291 -0.0529 -0.2312
 2776DECAN   C527745   1.567   1.263   8.440 -0.2839  0.1848  0.0075
 2776DECAN   C627746   1.708   1.299   8.491 -0.1527  0.3236 -0.4522
 2776DECAN   C727747   1.724   1.307   8.644  0.2543 -0.4036 -0.4541
 2776DECAN   C827748   1.868   1.348   8.679  0.1142 -0.0384 -0.3017
 2776DECAN   C927749   1.883   1.365   8.831 -0.2766  0.0615 -0.2738
 2776DECAN  C1027750   2.032   1.350   8.869 -0.0116  0.3812 -1.1527
 2777DECAN   C127751   1.054   6.182  11.255  0.1834  0.8326  0.1718
 2777DECAN   C227752   0.942   6.165  11.151 -0.0165  0.5759  0.4290
 2777DECAN   C327753   0.970   6.208  11.006 -0.0721  0.2861  0.3326
 2777DECAN   C427754   1.068   6.108  10.940 -0.2510  0.1154  0.3272
 2777DECAN   C527755   1.101   6.155  10.797  0.1757 -0.3460  0.2694
 2777DECAN   C627756   1.203   6.063  10.728  0.0507 -0.5720  0.3900
 2777DECAN   C727757   1.246   6.121  10.593 -0.3057  0.4411  0.7052
 2777DECAN   C827758   1.127   6.143  10.496 -0.1713 -0.0130  0.4328
 2777DECAN   C927759   1.159   6.191  10.354 -0.3258  0.1636  0.4590
 2777DECAN  C1027760   1.228   6.329  10.354 -0.1674  0.0849  0.6727
 2778DECAN   C127761   7.051   6.352   5.421 -0.1621 -0.5027  0.2224
 2778DECAN   C227762   7.017   6.499   5.391  0.4872 -0.3184  0.3853
 2778DECAN   C327763   6.902   6.526   5.293  0.4556 -0.0175  0.5014
 2778DECAN   C427764   6.855   6.671   5.270  0.0304 -0.2552 -0.1824
 2778DECAN   C527765   6.704   6.686   5.297  0.2028  0.0309  0.6650
 2778DECAN   C627766   6.654   6.831   5.307 -0.1786 -0.0305 -0.2026
 2778DECAN   C727767   6.502   6.850   5.291 -0.2333 -0.1872  0.1218
 2778DECAN   C827768   6.449   6.973   5.367  0.5620  0.4401 -0.3185
 2778DECAN   C927769   6.448   6.954   5.520  0.6156  0.0142 -0.3692
 2778DECAN  C1027770   6.379   6.826   5.570  0.0759  0.3459 -0.2651
 2779DECAN   C127771   4.291   3.642  11.559 -0.1521  0.3028  0.5487
 2779DECAN   C227772   4.425   3.589  11.612  0.2088  0.3716 -0.2903
 2779DECAN   C327773   4.443   3.437  11.593 -0.0789  0.3014 -0.0068
 2779DECAN   C427774   4.572   3.381  11.656 -0.1849 -0.1955 -0.2311
 2779DECAN   C527775   4.546   3.369  11.807  0.3995  0.2175 -0.0954
 2779DECAN   C627776   4.661   3.360  11.909  0.2459  0.0498  0.0659
 2779DECAN   C727777   4.614   3.299  12.042  0.4207 -0.2778 -0.0237
 2779DECAN   C827778   4.720   3.292  12.153  0.5511  0.3918 -0.1047
 2779DECAN   C927779   4.659   3.262  12.291 -0.4669  0.1367 -0.6017
 2779DECAN  C1027780   4.567   3.139  12.298 -0.1174 -0.0955  0.0218
 2780DECAN   C127781   6.216   8.628   7.374  0.0789  0.0759  0.3183
 2780DECAN   C227782   6.310   8.725   7.300  0.2877 -0.3349  0.0426
 2780DECAN   C327783   6.454   8.725   7.353  0.2175  0.1994  0.2398
 2780DECAN   C427784   6.562   8.806   7.279  0.1356 -0.2240 -0.3485
 2780DECAN   C527785   6.702   8.759   7.323  0.0440  0.1352  0.3493
 2780DECAN   C627786   6.744   8.619   7.272 -0.2911  0.0411  0.3336
 2780DECAN   C727787   6.893   8.583   7.264 -0.2848  0.1519 -0.0704
 2780DECAN   C827788   6.934   8.443   7.215  0.7053  0.1902  0.6147
 2780DECAN   C927789   6.875   8.322   7.289  0.0901  0.1097  0.0005
 2780DECAN  C1027790   6.897   8.327   7.441 -0.4624  0.3638  0.0751
 2781DECAN   C127791   1.779   3.811  11.317 -0.3584  0.3918  0.1618
 2781DECAN   C227792   1.742   3.949  11.259 -0.6356  0.3187  0.1634
 2781DECAN   C327793   1.664   4.039  11.355 -0.1869  0.4364  0.4207
 2781DECAN   C427794   1.610   4.168  11.290 -0.4827  0.0007 -0.1978
 2781DECAN   C527795   1.733   4.248  11.243 -0.6755  0.1395 -0.4680
 2781DECAN   C627796   1.703   4.398  11.222  0.1975  0.2896 -0.6790
 2781DECAN   C727797   1.665   4.480  11.346  0.5225  0.0468 -0.4139
 2781DECAN   C827798   1.627   4.624  11.303  0.2375  0.2774  0.6010
 2781DECAN   C927799   1.755   4.673  11.235 -0.1225 -0.0588 -0.3306
 2781DECAN  C1027800   1.760   4.820  11.187 -0.4357 -0.0867 -0.4489
 2782DECAN   C127801   7.131  10.026  11.792 -0.7695  0.1928 -0.4377
 2782DECAN   C227802   7.112  10.169  11.738  0.1890  0.5925  0.2404
 2782DECAN   C327803   7.226  10.240  11.664  0.2320  0.1595 -0.1127
 2782DECAN   C427804   7.281  10.159  11.545 -0.3080 -0.2303 -0.0970
 2782DECAN   C527805   7.375  10.042  11.581  0.0912  0.0635 -0.1802
 2782DECAN   C627806   7.440   9.961  11.467 -0.4386 -0.1881 -0.3067
 2782DECAN   C727807   7.559   9.878  11.517  0.0083  0.6054 -0.0346
 2782DECAN   C827808   7.687   9.950  11.562  0.1401  0.6278 -0.4410
 2782DECAN   C927809   7.784   9.845  11.620  0.0888  0.7444 -0.1408
 2782DECAN  C1027810   7.906   9.910  11.688  0.6246 -0.0835 -0.2983
 2783DECAN   C127811   9.189   2.406   6.785 -0.9782 -0.1019  0.1434
 2783DECAN   C227812   9.214   2.254   6.774 -0.8792 -0.0816  0.0851
 2783DECAN   C327813   9.214   2.155   6.892  0.6385 -0.1010  0.0872
 2783DECAN   C427814   9.267   2.012   6.868 -0.0655 -0.3186 -0.2027
 2783DECAN   C527815   9.253   1.925   6.994  0.3188  0.1122  0.1399
 2783DECAN   C627816   9.263   1.773   6.976  0.0249  0.2003 -0.8067
 2783DECAN   C727817   9.373   1.706   6.892 -0.0990 -0.4350 -0.4702
 2783DECAN   C827818   9.359   1.554   6.873  0.7664 -0.6497  0.5338
 2783DECAN   C927819   9.404   1.491   6.740  0.3879  0.6306 -0.2161
 2783DECAN  C1027820   9.293   1.500   6.634  0.1850 -0.2808 -0.0875
 2784DECAN   C127821   1.479   9.114   6.559 -0.2690  0.5872 -0.2471
 2784DECAN   C227822   1.620   9.172   6.539 -0.1861  0.3411 -0.3904
 2784DECAN   C327823   1.704   9.170   6.668 -0.5339  0.2571 -0.1626
 2784DECAN   C427824   1.826   9.262   6.649 -0.2296 -0.0072  0.4836
 2784DECAN   C527825   1.922   9.250   6.769 -0.2241 -0.1768  0.4618
 2784DECAN   C627826   1.961   9.102   6.785 -0.3593 -0.1876  0.6974
 2784DECAN   C727827   2.019   9.046   6.654  0.0664  0.1315  0.7466
 2784DECAN   C827828   2.042   8.894   6.662  0.0995  0.0947  0.0000
 2784DECAN   C927829   2.121   8.835   6.543 -0.6292 -0.5592 -0.1682
 2784DECAN  C1027830   2.142   8.682   6.545 -0.5819 -0.5512 -0.0176
 2785DECAN   C127831   5.381   5.549  10.114  0.5225  0.2763 -0.0261
 2785DECAN   C227832   5.432   5.646  10.223  1.3645 -0.2277  0.0376
 2785DECAN   C327833   5.370   5.624  10.362  0.3081  0.0810 -0.3741
 2785DECAN   C427834   5.368   5.747  10.455 -0.0960  0.1695 -0.5003
 2785DECAN   C527835   5.322   5.709  10.597  0.8134  0.4635 -0.1202
 2785DECAN   C627836   5.312   5.830  10.692 -0.0894  0.3642 -0.0787
 2785DECAN   C727837   5.215   5.938  10.643 -0.5324 -0.1430 -0.3251
 2785DECAN   C827838   5.275   6.044  10.548  0.2592 -0.5327 -0.2626
 2785DECAN   C927839   5.374   6.143  10.613  0.0294 -0.9185  0.6986
 2785DECAN  C1027840   5.319   6.185  10.750 -0.1333  0.0174  0.3571
 2786DECAN   C127841   1.707   2.809  13.895  0.1769 -0.4143  0.1022
 2786DECAN   C227842   1.842   2.872  13.858  0.0716 -0.3764 -0.2211
 2786DECAN   C327843   1.937   2.838  13.974 -0.2908  0.3197  0.2892
 2786DECAN   C427844   2.088   2.865  13.958 -0.3500  0.3056 -0.2979
 2786DECAN   C527845   2.161   2.778  14.062  0.0530  0.4577 -0.4527
 2786DECAN   C627846   2.314   2.786  14.046  0.0941 -0.2224 -0.4343
 2786DECAN   C727847   2.392   2.684  14.131 -0.3130 -0.1936 -0.0235
 2786DECAN   C827848   2.534   2.664  14.077 -0.0974 -0.1289  0.5128
 2786DECAN   C927849   2.623   2.568  14.159 -0.4707 -0.7223  0.2277
 2786DECAN  C1027850   2.658   2.623  14.298 -0.6472  0.2571 -0.1082
 2787DECAN   C127851   4.973   0.549   9.509  0.1922 -0.2664  0.0481
 2787DECAN   C227852   4.892   0.601   9.389  0.5064  0.0909 -0.0096
 2787DECAN   C327853   4.886   0.504   9.269 -0.0829  0.5594 -0.3644
 2787DECAN   C427854   4.838   0.569   9.138 -0.5978  0.4713 -0.2214
 2787DECAN   C527855   4.843   0.463   9.026 -0.5250 -0.1621  0.3742
 2787DECAN   C627856   4.740   0.351   9.046 -0.4692 -0.2134  0.3723
 2787DECAN   C727857   4.753   0.272   8.914 -0.2787 -0.2089  0.3891
 2787DECAN   C827858   4.674   0.141   8.896  0.2161 -0.4769  0.1427
 2787DECAN   C927859   4.521   0.145   8.917  0.2515  0.0716  0.3144
 2787DECAN  C1027860   4.461   0.007   8.946 -0.7774  0.3936 -0.2546
 2788DECAN   C127861   4.102   1.364   5.107 -0.2689 -0.5623  0.1758
 2788DECAN   C227862   4.157   1.367   4.963  0.0625  0.5928  0.3109
 2788DECAN   C327863   4.309   1.391   4.961  0.1708 -0.0982 -0.0768
 2788DECAN   C427864   4.360   1.526   5.014 -0.3709  0.2606 -0.4592
 2788DECAN   C527865   4.512   1.551   5.018 -0.3828  0.1952  0.4824
 2788DECAN   C627866   4.576   1.513   4.883 -0.2306 -0.5776  0.7687
 2788DECAN   C727867   4.722   1.464   4.876  0.1492  0.5727  0.4856
 2788DECAN   C827868   4.783   1.467   4.735 -0.0171  0.4595  0.4107
 2788DECAN   C927869   4.925   1.408   4.735 -0.0729  0.3203 -0.0335
 2788DECAN  C1027870   4.964   1.362   4.593  0.5703  0.1190  0.2049
 2789DECAN   C127871   8.791  10.821   6.391 -0.2250  0.1279 -0.4280
 2789DECAN   C227872   8.668  10.752   6.453  0.2186 -0.4918 -0.2243
 2789DECAN   C327873   8.595  10.640   6.377 -0.4316 -0.1940 -0.0423
 2789DECAN   C427874   8.462  10.581   6.427 -0.4643 -0.0309  0.0656
 2789DECAN   C527875   8.421  10.463   6.337 -0.2570 -0.1932  0.1835
 2789DECAN   C627876   8.290  10.402   6.392 -0.1663  0.0222  0.6366
 2789DECAN   C727877   8.261  10.271   6.316  0.0657  0.2439  0.1615
 2789DECAN   C827878   8.209  10.297   6.174  0.4198 -0.1076 -0.0320
 2789DECAN   C927879   8.145  10.168   6.118  0.1287 -0.1041  0.2906
 2789DECAN  C1027880   8.092  10.181   5.974 -0.6723 -0.1499  0.5792
 2790DECAN   C127881   1.253   9.819   7.365  0.4114 -0.2831 -0.3751
 2790DECAN   C227882   1.343   9.916   7.444 -0.0067 -0.2852  0.1135
 2790DECAN   C327883   1.469   9.863   7.516  0.2387  0.3507  0.1611
 2790DECAN   C427884   1.533   9.979   7.594  0.3006  0.1457  0.4129
 2790DECAN   C527885   1.615  10.071   7.503 -0.2632  0.3987  0.1586
 2790DECAN   C627886   1.533  10.153   7.401  0.4537  0.2232 -0.5675
 2790DECAN   C727887   1.612  10.249   7.310  0.4276  0.2775 -0.5326
 2790DECAN   C827888   1.657  10.369   7.395  0.2626  0.1958 -0.3291
 2790DECAN   C927889   1.806  10.395   7.421  0.3444 -0.3833 -0.2086
 2790DECAN  C1027890   1.899  10.415   7.300  0.6469  0.7444  0.1998
 2791DECAN   C127891   4.403   9.593   7.718  0.2541  0.1112 -0.1497
 2791DECAN   C227892   4.388   9.572   7.566  0.2724  0.0560 -0.1435
 2791DECAN   C327893   4.282   9.468   7.524 -0.1867  0.3362  0.2967
 2791DECAN   C427894   4.293   9.322   7.570  0.0688  0.2400 -0.0613
 2791DECAN   C527895   4.169   9.240   7.529  0.2026  0.0707 -0.1260
 2791DECAN   C627896   4.157   9.097   7.585 -0.2243  0.0260 -0.3242
 2791DECAN   C727897   4.046   9.001   7.537 -0.6074  0.5269 -0.4426
 2791DECAN   C827898   4.044   8.888   7.641  0.2160 -0.0661 -1.0539
 2791DECAN   C927899   3.912   8.809   7.629  0.0461  0.0068  0.1317
 2791DECAN  C1027900   3.898   8.691   7.726  0.2280 -0.0247  0.1206
 2792DECAN   C127901   6.829   7.956   4.422 -0.1933  0.4312  0.4400
 2792DECAN   C227902   6.976   7.913   4.412 -0.0643  1.0320 -0.3142
 2792DECAN   C327903   7.054   7.919   4.545 -0.4748 -0.4834  0.0134
 2792DECAN   C427904   7.205   7.889   4.533 -0.5320 -0.7039 -0.1517
 2792DECAN   C527905   7.284   7.864   4.662 -0.0626 -0.0864 -0.3146
 2792DECAN   C627906   7.424   7.801   4.648  0.3046  0.6021  0.1726
 2792DECAN   C727907   7.494   7.808   4.785 -0.3164  0.0836  0.5263
 2792DECAN   C827908   7.531   7.951   4.828 -0.7201  0.5135 -0.5120
 2792DECAN   C927909   7.602   7.962   4.964 -0.1199 -0.1168 -0.7681
 2792DECAN  C1027910   7.626   8.104   5.021 -0.5709 -0.3434 -0.0028
 2793DECAN   C127911   5.625   0.336   8.330 -0.1009  0.2744 -0.1842
 2793DECAN   C227912   5.512   0.428   8.380 -0.1817  0.1883 -0.2082
 2793DECAN   C327913   5.503   0.454   8.531  0.1902 -0.3651 -0.0862
 2793DECAN   C427914   5.457   0.330   8.609 -0.1384 -0.3533 -0.2595
 2793DECAN   C527915   5.390   0.364   8.743  0.4072  0.8011 -0.2722
 2793DECAN   C627916   5.312   0.248   8.808  1.0382  0.6272  0.1861
 2793DECAN   C727917   5.268   0.265   8.955 -0.2666  0.5192 -0.1745
 2793DECAN   C827918   5.396   0.247   9.039 -0.1526  0.3818 -0.3747
 2793DECAN   C927919   5.408   0.308   9.180 -0.1411  0.1388 -0.2711
 2793DECAN  C1027920   5.305   0.253   9.281  0.1247 -0.2599 -0.2130
 2794DECAN   C127921   2.753   4.684   6.708  0.0592 -0.2125 -0.1366
 2794DECAN   C227922   2.875   4.763   6.757  0.2175 -0.3728 -0.2707
 2794DECAN   C327923   2.834   4.889   6.836  0.3698 -0.3235 -0.2690
 2794DECAN   C427924   2.795   4.866   6.983  0.7104  0.0926 -0.1131
 2794DECAN   C527925   2.765   4.996   7.061 -1.0275 -0.4589  0.1774
 2794DECAN   C627926   2.874   5.050   7.155 -0.5789  0.2464 -0.7401
 2794DECAN   C727927   2.844   5.187   7.220  0.3506 -0.0038  0.2384
 2794DECAN   C827928   2.963   5.244   7.300  0.5111  0.4215 -0.2921
 2794DECAN   C927929   2.926   5.367   7.385 -0.0961 -0.1566  0.2968
 2794DECAN  C1027930   2.919   5.499   7.306 -0.1493 -0.4030 -0.1125
 2795DECAN   C127931   2.240   0.353  14.882 -0.5205  0.4240  0.0261
 2795DECAN   C227932   2.332   0.368  14.760  0.1592 -0.3286  0.4390
 2795DECAN   C327933   2.306   0.502  14.689 -0.3219 -0.4425  0.3990
 2795DECAN   C427934   2.314   0.623  14.784 -0.2342 -0.0981 -0.0412
 2795DECAN   C527935   2.256   0.744  14.710 -0.3056  0.3527  0.7406
 2795DECAN   C627936   2.102   0.744  14.710 -0.3099 -0.4475  0.7697
 2795DECAN   C727937   2.034   0.627  14.635  0.4219 -0.5512  0.2553
 2795DECAN   C827938   1.880   0.622  14.636  0.3914  0.1924  0.4031
 2795DECAN   C927939   1.821   0.507  14.553 -0.1288  0.4423  0.4284
 2795DECAN  C1027940   1.668   0.485  14.562 -0.2323  0.7620 -0.3982
 2796DECAN   C127941   2.210   8.946  14.361  0.3367 -0.1804  0.3348
 2796DECAN   C227942   2.118   9.009  14.468 -0.0557 -0.2168  0.0227
 2796DECAN   C327943   2.166   8.979  14.611 -0.2373 -0.0985  0.1084
 2796DECAN   C427944   2.096   9.063  14.719 -0.5921 -0.1871 -0.0536
 2796DECAN   C527945   2.122   9.017  14.864 -0.3992 -0.2277 -0.1016
 2796DECAN   C627946   2.060   9.109  14.970  0.0557 -0.0535  0.0137
 2796DECAN   C727947   2.116   9.252  14.979 -0.1118  0.0463 -0.5136
 2796DECAN   C827948   2.076   9.325  15.109  0.1265  0.1911 -0.5207
 2796DECAN   C927949   2.143   9.463  15.121 -0.1528  0.2661  0.2275
 2796DECAN  C1027950   2.295   9.452  15.146  0.0181  0.2858 -0.7446
 2797DECAN   C127951   6.245  10.305  13.861  0.5187  0.1702  0.1144
 2797DECAN   C227952   6.236  10.274  13.710  0.2062 -0.0035  0.1672
 2797DECAN   C327953   6.126  10.355  13.640  0.3638  0.1774  0.1261
 2797DECAN   C427954   6.088  10.300  13.501 -0.4564  0.4386  0.2405
 2797DECAN   C527955   5.955  10.354  13.446 -0.4298  0.0265 -0.2420
 2797DECAN   C627956   5.952  10.508  13.432 -0.1053  0.0924  0.3626
 2797DECAN   C727957   5.808  10.554  13.402 -0.0718 -0.2726 -0.3940
 2797DECAN   C827958   5.755  10.497  13.270 -0.1103  0.3908 -0.6706
 2797DECAN   C927959   5.672  10.368  13.285 -0.4429  0.6247 -0.4967
 2797DECAN  C1027960   5.652  10.299  13.149 -0.1071  0.2402 -0.3535
 2798DECAN   C127961   1.713  11.100  10.716 -0.6274 -0.1148  0.1353
 2798DECAN   C227962   1.790  11.233  10.704 -0.3995 -0.2801 -0.2291
 2798DECAN   C327963   1.701   0.114  10.715 -0.2833 -0.1939 -0.2683
 2798DECAN   C427964   1.794   0.232  10.684  0.1326 -0.3223  0.4584
 2798DECAN   C527965   1.721   0.367  10.668  0.0303 -0.4898 -0.5571
 2798DECAN   C627966   1.625   0.390  10.549  0.2291  0.3115 -0.5689
 2798DECAN   C727967   1.567   0.529  10.519  0.1388  0.4371  0.1764
 2798DECAN   C827968   1.462   0.523  10.407  0.2037  0.5376  0.1093
 2798DECAN   C927969   1.426   0.667  10.366 -0.1365  0.4395  0.0649
 2798DECAN  C1027970   1.353   0.672  10.231 -0.0155 -1.0146 -0.0658
 2799DECAN   C127971   6.460   2.031   8.977 -0.2745 -0.0649  0.2508
 2799DECAN   C227972   6.359   1.931   9.035 -0.1076 -0.3692  0.0200
 2799DECAN   C327973   6.409   1.872   9.169  0.2665  0.8593  0.4307
 2799DECAN   C427974   6.350   1.733   9.197 -0.5515  1.1413  0.1573
 2799DECAN   C527975   6.400   1.688   9.335  0.1665  0.6474 -0.2549
 2799DECAN   C627976   6.315   1.572   9.390  0.9343  0.0694 -0.2678
 2799DECAN   C727977   6.340   1.515   9.531  0.0554 -0.3911 -0.2881
 2799DECAN   C827978   6.256   1.399   9.588 -0.4103  0.4023  0.6767
 2799DECAN   C927979   6.278   1.367   9.737 -0.2206  0.4088  0.6512
 2799DECAN  C1027980   6.223   1.239   9.804  0.1378  0.0504  0.2635
 2800DECAN   C127981   4.449   3.576  12.421  0.4447  0.1140  1.4899
 2800DECAN   C227982   4.347   3.502  12.509 -0.4492 -0.1641  0.2438
 2800DECAN   C327983   4.286   3.393  12.418 -0.1617 -0.3870  0.3197
 2800DECAN   C427984   4.193   3.283  12.472 -0.9048 -0.3020 -0.7794
 2800DECAN   C527985   4.068   3.322  12.553 -0.3530 -0.1497  0.0042
 2800DECAN   C627986   4.090   3.374  12.697 -0.0588  0.0646 -0.1178
 2800DECAN   C727987   3.965   3.435  12.763 -0.4327 -0.5790 -0.2115
 2800DECAN   C827988   3.952   3.581  12.714 -0.0295 -0.4414  0.0801
 2800DECAN   C927989   3.837   3.667  12.770 -0.2848 -0.3058 -0.6464
 2800DECAN  C1027990   3.823   3.814  12.727  0.7854  0.0658  0.2377
 2801DECAN   C127991   8.622   5.428  10.261 -0.3138 -0.1318 -0.1796
 2801DECAN   C227992   8.481   5.402  10.205 -0.2166  0.0005 -0.4853
 2801DECAN   C327993   8.440   5.487  10.083 -0.6214  0.4450 -0.0469
 2801DECAN   C427994   8.367   5.407   9.974 -0.3563 -0.3027  0.3145
 2801DECAN   C527995   8.467   5.323   9.894 -0.5321 -0.4471  0.2431
 2801DECAN   C627996   8.521   5.199   9.967 -0.4352 -0.5370  0.0217
 2801DECAN   C727997   8.587   5.097   9.872 -0.0611  0.1069 -0.4101
 2801DECAN   C827998   8.653   4.984   9.952  0.1547  0.5239  0.0062
 2801DECAN   C927999   8.684   4.856   9.872 -0.0423  0.3096  0.2654
 2801DECAN  C1028000   8.786   4.869   9.757 -0.0908 -0.1722  0.1700
 2802DECAN   C128001   1.774   1.174  10.029 -0.4478  0.3571  0.0693
 2802DECAN   C228002   1.830   1.152  10.171 -0.1036 -0.2583 -0.1614
 2802DECAN   C328003   1.743   1.239  10.263 -0.0408 -0.2509 -0.1093
 2802DECAN   C428004   1.792   1.383  10.238  0.6297 -0.5515 -0.5659
 2802DECAN   C528005   1.782   1.431  10.092  0.6630 -0.4332 -0.5300
 2802DECAN   C628006   1.834   1.574  10.076 -0.0642 -0.0884  0.0898
 2802DECAN   C728007   1.759   1.688  10.146 -0.2480 -0.1146 -0.0651
 2802DECAN   C828008   1.836   1.821  10.156 -0.4368  0.0551 -0.8372
 2802DECAN   C928009   1.768   1.919  10.253  0.8137 -0.1364  0.2622
 2802DECAN  C1028010   1.857   2.041  10.283 -0.1616  0.6396  0.0864
 2803DECAN   C128011  10.050  10.506   8.630  0.2438 -0.3085 -0.1244
 2803DECAN   C228012   9.961  10.380   8.633 -0.0448 -0.1384 -1.0584
 2803DECAN   C328013   9.990  10.285   8.515  0.8152 -1.0068 -0.1714
 2803DECAN   C428014   9.910  10.154   8.508 -0.0515 -0.4791 -0.3186
 2803DECAN   C528015   9.921  10.076   8.641 -0.3778  0.5189  0.3013
 2803DECAN   C628016   9.879   9.929   8.627  0.1755  0.3487  0.3947
 2803DECAN   C728017   9.872   9.847   8.758  0.2081 -0.2720  0.0138
 2803DECAN   C828018   9.829   9.702   8.731  0.2076 -0.2915  0.1289
 2803DECAN   C928019   9.869   9.605   8.845 -0.3551 -0.2325  0.3814
 2803DECAN  C1028020   9.832   9.457   8.827  0.5463 -0.3666 -0.4818
 2804DECAN   C128021   9.873   9.062  11.756 -0.0046 -0.3388  0.6953
 2804DECAN   C228022   9.855   9.037  11.605  0.3491  0.3528  0.5335
 2804DECAN   C328023   9.715   9.089  11.564  0.4858  0.2130 -0.1159
 2804DECAN   C428024   9.654   9.038  11.432 -0.1868  0.5910  0.0484
 2804DECAN   C528025   9.754   9.076  11.322 -0.0523  0.6723  0.1989
 2804DECAN   C628026   9.891   9.006  11.337 -0.4571 -0.2114 -0.1234
 2804DECAN   C728027   9.971   9.035  11.209 -0.4243  0.0765 -0.0380
 2804DECAN   C828028  10.122   9.013  11.228 -0.3635  0.4591 -0.0717
 2804DECAN   C928029  10.198   9.033  11.095  0.0486 -0.4671  0.0164
 2804DECAN  C1028030  10.351   9.016  11.085  0.1079 -0.2009  0.4671
 2805DECAN   C128031   3.140   7.459   7.300 -0.4284  0.1099 -0.0709
 2805DECAN   C228032   3.266   7.545   7.285 -0.3691 -0.0263 -0.3462
 2805DECAN   C328033   3.388   7.522   7.377 -0.2408  0.8463 -0.2903
 2805DECAN   C428034   3.497   7.624   7.338  0.3339  0.1924 -0.4091
 2805DECAN   C528035   3.638   7.574   7.373  0.3423  0.0961 -0.5805
 2805DECAN   C628036   3.762   7.655   7.331  0.6189 -0.0704 -0.0950
 2805DECAN   C728037   3.898   7.602   7.380  0.2567 -0.5229  0.4417
 2805DECAN   C828038   4.025   7.680   7.340 -0.1589  0.1334  0.3866
 2805DECAN   C928039   4.152   7.602   7.381 -0.1464 -0.2261 -0.3233
 2805DECAN  C1028040   4.280   7.672   7.331  0.2145 -0.4232  0.3116
 2806DECAN   C128041   2.104  11.047   8.874 -0.7149  0.2750 -0.3315
 2806DECAN   C228042   2.195  11.014   8.994 -0.2341  0.2590 -0.6968
 2806DECAN   C328043   2.123  10.989   9.128  0.3366 -0.1797 -0.4666
 2806DECAN   C428044   2.215  10.908   9.221 -0.2071 -0.0947  0.1449
 2806DECAN   C528045   2.261  10.983   9.348 -0.6023 -0.0031  0.2374
 2806DECAN   C628046   2.362  10.905   9.434  0.2883  0.2854 -0.5344
 2806DECAN   C728047   2.429  10.978   9.552 -0.1114  0.2141 -0.2643
 2806DECAN   C828048   2.556  10.920   9.618 -0.0886 -0.0415 -0.5302
 2806DECAN   C928049   2.545  10.768   9.642  0.6924  0.0475  0.4294
 2806DECAN  C1028050   2.672  10.714   9.711  0.8237  0.1029  0.2330
 2807DECAN   C128051   7.477   2.152   8.712 -0.3800 -0.2787 -0.3637
 2807DECAN   C228052   7.506   2.045   8.820  0.4374 -0.3651 -0.6621
 2807DECAN   C328053   7.615   2.078   8.924 -0.0902  0.0503 -0.2347
 2807DECAN   C428054   7.628   1.966   9.029 -0.0019  0.1641 -0.1261
 2807DECAN   C528055   7.751   1.966   9.122  0.1685 -0.0760 -0.3537
 2807DECAN   C628056   7.887   2.006   9.062  0.1926  0.2514 -0.0811
 2807DECAN   C728057   8.011   1.995   9.153 -0.1364 -0.5095  0.2792
 2807DECAN   C828058   8.135   2.073   9.105 -0.4188 -0.3869 -0.2600
 2807DECAN   C928059   8.257   2.040   9.194 -0.4712 -0.4989 -0.2275
 2807DECAN  C1028060   8.218   2.035   9.342  0.9039  0.3352  0.1806
 2808DECAN   C128061   7.480   7.447  14.039 -0.2765 -0.0062  0.0591
 2808DECAN   C228062   7.527   7.401  14.178 -0.1585 -0.1568 -0.0306
 2808DECAN   C328063   7.412   7.427  14.277 -0.0534  0.0056  0.0491
 2808DECAN   C428064   7.437   7.357  14.412 -0.5434 -0.1850  0.0408
 2808DECAN   C528065   7.330   7.399  14.515 -0.2956 -0.2973  0.3463
 2808DECAN   C628066   7.347   7.346  14.658  0.4310  0.0838  0.4044
 2808DECAN   C728067   7.388   7.197  14.657 -0.1171 -0.0691  0.0168
 2808DECAN   C828068   7.412   7.142  14.799  0.3674  0.1674  0.0288
 2808DECAN   C928069   7.495   7.013  14.811 -0.3351 -0.3024 -0.1251
 2808DECAN  C1028070   7.491   6.940  14.947 -0.1822 -0.5740 -0.2668
 2809DECAN   C128071   3.399  10.448   8.351  0.0734 -0.0829 -0.4776
 2809DECAN   C228072   3.335  10.339   8.439 -0.4476  0.3449 -0.3260
 2809DECAN   C328073   3.405  10.203   8.427 -0.1299  0.5154 -0.4202
 2809DECAN   C428074   3.407  10.157   8.280  0.0932 -0.3675 -0.1481
 2809DECAN   C528075   3.535  10.202   8.209  0.2869  0.0430  0.4517
 2809DECAN   C628076   3.565  10.125   8.078 -0.0728 -0.3702  0.6125
 2809DECAN   C728077   3.684  10.181   7.998 -0.5670  0.1581  0.2433
 2809DECAN   C828078   3.666  10.327   7.953  0.4807  0.2628  0.1518
 2809DECAN   C928079   3.774  10.366   7.850 -0.2793 -0.0264 -0.7652
 2809DECAN  C1028080   3.793  10.518   7.840  0.1934 -0.0589 -0.3916
 2810DECAN   C128081   4.690   6.250  14.068  0.3030 -0.1330 -0.2344
 2810DECAN   C228082   4.651   6.135  14.164  0.5673 -0.1785 -0.1820
 2810DECAN   C328083   4.515   6.137  14.237  0.2127 -0.1078 -0.8447
 2810DECAN   C428084   4.506   6.002  14.309  0.8971  0.4514  0.3140
 2810DECAN   C528085   4.393   5.997  14.414  0.3382 -0.0270 -0.3040
 2810DECAN   C628086   4.402   5.871  14.501 -0.3564 -0.2586 -0.5537
 2810DECAN   C728087   4.282   5.857  14.597  0.1477  0.0208  0.1333
 2810DECAN   C828088   4.149   5.832  14.523  0.1171  0.1944  0.1255
 2810DECAN   C928089   4.024   5.834  14.614  0.3333 -0.0738  0.4344
 2810DECAN  C1028090   3.998   5.696  14.678  0.8828 -0.0898  0.6292
 2811DECAN   C128091   5.833   7.775   9.606  0.1170 -0.5139  0.0017
 2811DECAN   C228092   5.832   7.860   9.735  0.0541 -0.1099 -0.2616
 2811DECAN   C328093   5.892   7.776   9.849 -0.3038 -0.1636 -0.1130
 2811DECAN   C428094   5.830   7.818   9.984 -0.0701  0.6889 -0.2613
 2811DECAN   C528095   5.880   7.949  10.047  0.4027  0.0352  0.7476
 2811DECAN   C628096   5.810   7.982  10.181  0.1013 -0.3396  0.6866
 2811DECAN   C728097   5.658   7.965  10.175  0.0087  0.6326 -0.0928
 2811DECAN   C828098   5.594   8.083  10.100 -0.2425  0.5307 -0.0406
 2811DECAN   C928099   5.443   8.101  10.125 -0.2888  0.0578  0.0236
 2811DECAN  C1028100   5.389   8.244  10.138 -0.2111  0.1091 -0.2061
 2812DECAN   C128101   5.617   5.896  14.601  0.7402 -0.1964 -0.0277
 2812DECAN   C228102   5.768   5.914  14.630  0.7968 -0.6219 -0.0554
 2812DECAN   C328103   5.807   6.059  14.663 -0.2087 -0.4165  0.2767
 2812DECAN   C428104   5.933   6.091  14.746  0.1033 -0.4898 -0.1688
 2812DECAN   C528105   6.055   6.080  14.652 -0.0526 -0.0562 -0.4243
 2812DECAN   C628106   6.058   6.181  14.536 -0.1620 -0.0470 -0.4184
 2812DECAN   C728107   6.173   6.150  14.439 -0.2582 -0.6598 -0.3366
 2812DECAN   C828108   6.188   6.258  14.331  0.1738 -0.4053 -0.0308
 2812DECAN   C928109   6.259   6.386  14.376 -0.6411  0.0389  0.0214
 2812DECAN  C1028110   6.269   6.479  14.252  0.2406  0.2130  0.2113
 2813DECAN   C128111   6.507   2.395   4.375  1.1297  0.2107  0.2436
 2813DECAN   C228112   6.462   2.538   4.412  0.6696  0.1531 -0.0841
 2813DECAN   C328113   6.322   2.545   4.474  0.4006  0.3076 -0.6991
 2813DECAN   C428114   6.306   2.676   4.554 -0.3257 -0.1472 -0.0879
 2813DECAN   C528115   6.176   2.685   4.637 -0.3087 -0.0729 -0.0698
 2813DECAN   C628116   6.163   2.818   4.714  0.0767 -0.1619  0.1494
 2813DECAN   C728117   6.037   2.831   4.801  0.2059  0.6723  0.2231
 2813DECAN   C828118   6.042   2.935   4.914  0.4319  0.2993  0.5598
 2813DECAN   C928119   5.924   2.930   5.012  0.2429 -0.0064  0.3172
 2813DECAN  C1028120   5.916   2.792   5.080  0.5679 -0.2294 -0.0941
 2814DECAN   C128121   5.665   2.074  14.766  0.8363  0.1184  0.3302
 2814DECAN   C228122   5.683   2.090  14.614 -0.0365  0.4736  0.2595
 2814DECAN   C328123   5.606   2.208  14.551  0.0005  0.5135  0.2874
 2814DECAN   C428124   5.644   2.249  14.408  0.3303 -0.4614  0.0850
 2814DECAN   C528125   5.562   2.373  14.368  0.3187 -0.4529  0.1335
 2814DECAN   C628126   5.409   2.361  14.384  0.3009 -0.2091  0.1447
 2814DECAN   C728127   5.327   2.487  14.349  0.2067 -0.3653 -0.2046
 2814DECAN   C828128   5.175   2.480  14.373  0.1420  0.1781 -0.4402
 2814DECAN   C928129   5.107   2.618  14.383  0.0495  0.0991  0.0614
 2814DECAN  C1028130   5.144   2.701  14.507  0.8324  0.3558 -0.3344
 2815DECAN   C128131   9.996   3.796  10.076 -0.9691 -0.1986  0.4542
 2815DECAN   C228132  10.090   3.910  10.118 -0.5646 -0.0213 -0.8705
 2815DECAN   C328133  10.037   4.046  10.167  0.0920 -0.1902  0.3488
 2815DECAN   C428134  10.160   4.134  10.195 -0.2755  0.3592  0.2593
 2815DECAN   C528135  10.100   4.274  10.214 -0.1911  0.2949  1.0297
 2815DECAN   C628136  10.208   4.378  10.253  0.3624  0.3064 -0.4774
 2815DECAN   C728137  10.266   4.360  10.394  0.1092  0.0423 -0.4059
 2815DECAN   C828138  10.379   4.458  10.429 -0.4493  0.2442  0.9051
 2815DECAN   C928139  10.342   4.608  10.437 -0.2796  0.3208  0.2941
 2815DECAN  C1028140  10.264   4.653  10.313 -0.3305  0.2202  0.2891
 2816DECAN   C128141  10.232   7.794  12.777  0.1096 -0.2258 -0.0135
 2816DECAN   C228142  10.180   7.654  12.816  0.6735 -0.5110 -0.2734
 2816DECAN   C328143  10.174   7.638  12.969  0.1966  0.2474 -0.2073
 2816DECAN   C428144  10.117   7.504  13.019  0.0478  0.3254 -0.1678
 2816DECAN   C528145  10.097   7.486  13.171 -0.0910 -0.2213 -0.2483
 2816DECAN   C628146   9.990   7.383  13.209  0.0604 -0.3244 -0.0974
 2816DECAN   C728147   9.989   7.356  13.361 -0.3876 -0.0304 -0.0476
 2816DECAN   C828148   9.935   7.213  13.380 -0.1068 -0.1138  0.1237
 2816DECAN   C928149   9.784   7.209  13.353 -0.2614 -0.8034  1.0628
 2816DECAN  C1028150   9.693   7.244  13.472 -0.2406  0.3848  0.7438
 2817DECAN   C128151   8.699   3.125   7.483  0.0997 -0.1171 -0.0498
 2817DECAN   C228152   8.825   3.135   7.571 -0.1885  0.2575  0.3264
 2817DECAN   C328153   8.818   3.060   7.706  0.2964 -0.3436  0.0245
 2817DECAN   C428154   8.768   2.915   7.702 -0.0018 -0.2399 -0.0519
 2817DECAN   C528155   8.749   2.838   7.834 -0.3106  0.0798  0.0916
 2817DECAN   C628156   8.649   2.724   7.807 -0.2481  0.1016 -0.2299
 2817DECAN   C728157   8.524   2.761   7.724 -0.2607  0.3147 -0.1154
 2817DECAN   C828158   8.421   2.853   7.793 -0.2504 -0.1877  0.5925
 2817DECAN   C928159   8.306   2.902   7.702  0.0091 -0.4531  0.1191
 2817DECAN  C1028160   8.233   2.783   7.636  0.4833 -0.6654 -0.0355
 2818DECAN   C128161   4.968   5.077  13.297  0.5160 -0.2944  0.2593
 2818DECAN   C228162   5.060   5.195  13.262 -0.2722  0.1207 -0.4649
 2818DECAN   C328163   5.144   5.225  13.388 -0.1038  0.3130 -0.6220
 2818DECAN   C428164   5.068   5.236  13.522  0.8325 -1.0341  0.0357
 2818DECAN   C528165   5.124   5.301  13.650  0.5722 -0.4876 -0.1269
 2818DECAN   C628166   5.034   5.277  13.773  1.1991  0.4964  0.5455
 2818DECAN   C728167   5.037   5.129  13.815  0.2051  0.2896 -0.0732
 2818DECAN   C828168   5.177   5.067  13.824  0.1722  0.1779 -0.3172
 2818DECAN   C928169   5.178   4.927  13.889 -0.6018  0.3474  0.0745
 2818DECAN  C1028170   5.213   4.825  13.779  0.2127  0.1274  0.5253
 2819DECAN   C128171  10.298   3.306  11.601  0.4803  0.1319 -0.0251
 2819DECAN   C228172  10.169   3.384  11.635  0.2007 -0.1005 -0.5412
 2819DECAN   C328173  10.122   3.479  11.524  0.0102 -0.2798 -0.6162
 2819DECAN   C428174  10.013   3.572  11.581  0.6400 -0.0133  0.1837
 2819DECAN   C528175   9.967   3.678  11.479  0.2535  0.0654  0.4378
 2819DECAN   C628176   9.828   3.739  11.502  0.2995  0.6071 -0.6455
 2819DECAN   C728177   9.771   3.815  11.381 -0.1212 -0.0218 -0.8485
 2819DECAN   C828178   9.635   3.885  11.391  0.1800  0.4727 -0.1700
 2819DECAN   C928179   9.582   3.956  11.265 -0.0488  0.0407 -0.3187
 2819DECAN  C1028180   9.464   4.043  11.313 -0.0019 -0.2254  0.2929
 2820DECAN   C128181   7.036   7.171  14.108  0.0648  1.0607  0.9421
 2820DECAN   C228182   7.119   7.047  14.142 -0.1964  0.7518  0.4665
 2820DECAN   C328183   7.112   6.997  14.288  0.3279 -0.7966 -0.0090
 2820DECAN   C428184   7.231   6.904  14.317  0.6746 -0.3363  0.0604
 2820DECAN   C528185   7.228   6.837  14.455  0.8019 -0.0216  0.2182
 2820DECAN   C628186   7.347   6.745  14.487  0.5765 -0.6299 -0.6514
 2820DECAN   C728187   7.331   6.662  14.615  0.4305  0.3801 -0.0041
 2820DECAN   C828188   7.451   6.612  14.698  0.2628 -0.2328 -0.1248
 2820DECAN   C928189   7.407   6.532  14.822  0.0358 -0.4883 -0.3680
 2820DECAN  C1028190   7.517   6.524  14.929  0.1689 -0.0336 -0.4670
 2821DECAN   C128191   6.329   6.798  14.610  0.1521  0.3028  0.2569
 2821DECAN   C228192   6.398   6.660  14.596 -0.1915  0.1021  0.5240
 2821DECAN   C328193   6.383   6.558  14.710  0.1778 -0.4037  0.1183
 2821DECAN   C428194   6.237   6.515  14.735 -0.0374  0.2597  0.0148
 2821DECAN   C528195   6.222   6.450  14.874 -0.2281  0.5613  0.1341
 2821DECAN   C628196   6.074   6.428  14.911 -0.0724 -0.7769  0.0084
 2821DECAN   C728197   6.006   6.562  14.945  0.6900 -0.4017  0.0799
 2821DECAN   C828198   5.856   6.569  14.980  0.4909 -0.0683 -0.8099
 2821DECAN   C928199   5.817   6.713  15.016 -0.0710 -0.4174  0.0184
 2821DECAN  C1028200   5.679   6.730  15.081 -0.0118 -0.0664  0.0581
 2822DECAN   C128201   9.781   7.078   5.603 -0.0171 -0.0039 -0.4892
 2822DECAN   C228202   9.931   7.102   5.629 -0.2051  0.2966  0.3500
 2822DECAN   C328203   9.993   7.029   5.750  0.1175 -0.6088 -0.3509
 2822DECAN   C428204  10.141   7.072   5.759 -0.1645  0.4716 -0.6316
 2822DECAN   C528205  10.211   7.050   5.895  0.2275  0.9515 -0.7509
 2822DECAN   C628206  10.128   7.125   6.001  0.1373 -0.4417  0.1956
 2822DECAN   C728207  10.171   7.093   6.145  0.6913  0.1715  0.1656
 2822DECAN   C828208  10.159   6.944   6.178  0.0252  0.1192 -0.2908
 2822DECAN   C928209  10.012   6.902   6.195 -0.0345  0.6025  0.4067
 2822DECAN  C1028210  10.019   6.755   6.239  0.6945  0.5194  0.0340
 2823DECAN   C128211   7.755   5.195   7.218 -0.2782  0.5004  0.5938
 2823DECAN   C228212   7.840   5.067   7.228 -0.1248  0.5959  0.5172
 2823DECAN   C328213   7.952   5.052   7.123 -0.6612 -0.3718  0.0657
 2823DECAN   C428214   8.051   4.934   7.138 -0.7124 -0.3777  0.3659
 2823DECAN   C528215   8.143   4.953   7.259 -0.2225  0.1405 -0.0814
 2823DECAN   C628216   8.066   4.904   7.383 -0.6680  0.7419 -0.1124
 2823DECAN   C728217   8.128   4.915   7.524  0.4399 -0.7922 -0.4418
 2823DECAN   C828218   8.028   4.855   7.625  0.0241  0.4787 -0.0823
 2823DECAN   C928219   8.061   4.900   7.769  0.4169 -0.0251 -0.0150
 2823DECAN  C1028220   7.966   4.840   7.874  0.1704  0.3811 -0.0037
 2824DECAN   C128221   5.685   0.631   6.182  0.4331 -0.5430  0.1863
 2824DECAN   C228222   5.830   0.656   6.136  0.2654  0.1262  0.0028
 2824DECAN   C328223   5.931   0.681   6.250 -0.0660  0.0846  0.3088
 2824DECAN   C428224   6.079   0.697   6.210 -0.1372  0.0192  0.0125
 2824DECAN   C528225   6.153   0.569   6.167 -0.4050  0.1235 -0.7589
 2824DECAN   C628226   6.302   0.582   6.132 -0.2431  0.0908 -0.0852
 2824DECAN   C728227   6.376   0.658   6.243 -0.2358  0.0927 -0.0913
 2824DECAN   C828228   6.529   0.681   6.240 -0.1466 -0.4765 -0.0943
 2824DECAN   C928229   6.587   0.772   6.350  0.2160 -0.2051 -0.5078
 2824DECAN  C1028230   6.517   0.909   6.359  0.2619 -0.1527 -0.9344
 2825DECAN   C128231   5.591   0.049  11.225 -0.6199  0.0643 -0.2051
 2825DECAN   C228232   5.675   0.085  11.101  0.0626 -0.8796 -0.0304
 2825DECAN   C328233   5.593   0.182  11.014 -0.1222 -0.5022  0.5515
 2825DECAN   C428234   5.471   0.116  10.946  0.0988 -0.1662 -0.1851
 2825DECAN   C528235   5.392   0.216  10.860 -0.1162 -0.2943 -0.1370
 2825DECAN   C628236   5.458   0.220  10.721 -0.5003 -0.4279 -0.3264
 2825DECAN   C728237   5.375   0.283  10.608 -0.5758  0.3171  0.1400
 2825DECAN   C828238   5.233   0.227  10.588 -0.0907 -0.6209 -0.7613
 2825DECAN   C928239   5.154   0.329  10.503 -0.3392  0.2904  0.5311
 2825DECAN  C1028240   5.122   0.468  10.560 -0.8314  0.5594 -0.3973
 2826DECAN   C128241   1.500   5.678   7.612 -0.3276 -0.4082  0.1527
 2826DECAN   C228242   1.495   5.604   7.477 -0.4472 -0.1700  0.0243
 2826DECAN   C328243   1.620   5.517   7.453 -0.3101 -0.1123  0.5132
 2826DECAN   C428244   1.624   5.454   7.312  0.5764 -0.2231  0.5833
 2826DECAN   C528245   1.747   5.366   7.283  0.2666 -0.3731 -0.2850
 2826DECAN   C628246   1.748   5.305   7.141 -0.1617  0.2908 -0.5818
 2826DECAN   C728247   1.873   5.218   7.117 -0.0412  0.2065  0.2987
 2826DECAN   C828248   1.860   5.169   6.971 -0.1859  0.2982  0.2804
 2826DECAN   C928249   1.841   5.297   6.888  0.2590  0.3130  0.1987
 2826DECAN  C1028250   1.844   5.257   6.739 -0.1684  0.4651  0.1473
 2827DECAN   C128251   3.406   8.485  13.441 -0.3321  0.6728  0.9262
 2827DECAN   C228252   3.457   8.378  13.539  0.1268 -0.4491 -0.4890
 2827DECAN   C328253   3.565   8.291  13.473  0.6503  0.1316 -0.3995
 2827DECAN   C428254   3.611   8.161  13.541  0.1752  0.2133  0.0791
 2827DECAN   C528255   3.492   8.064  13.558  0.4708 -0.1692 -0.0024
 2827DECAN   C628256   3.511   7.944  13.653 -0.3411  0.0512  0.4490
 2827DECAN   C728257   3.390   7.869  13.712 -0.5171  0.1948  0.2742
 2827DECAN   C828258   3.310   7.785  13.610 -0.0517  0.0834 -0.0041
 2827DECAN   C928259   3.386   7.683  13.523 -0.1345 -0.0418  0.0695
 2827DECAN  C1028260   3.294   7.638  13.408 -0.0683 -0.0684  0.0280
 2828DECAN   C128261   9.708   4.836  14.045  0.2452  0.7253  0.5058
 2828DECAN   C228262   9.575   4.900  13.999 -0.0946 -0.0253  0.4298
 2828DECAN   C328263   9.581   5.016  13.898 -0.1329  0.3500  0.8561
 2828DECAN   C428264   9.442   5.051  13.844  0.2260  0.2706 -0.1347
 2828DECAN   C528265   9.448   5.126  13.709  0.1244  0.7502  0.1251
 2828DECAN   C628266   9.308   5.143  13.645 -0.0120  0.0079  0.2201
 2828DECAN   C728267   9.256   5.008  13.592 -0.0887  0.0993  0.0679
 2828DECAN   C828268   9.343   4.952  13.478 -0.4557 -0.0146 -0.1591
 2828DECAN   C928269   9.307   4.813  13.423  0.0867 -0.1001 -0.3008
 2828DECAN  C1028270   9.265   4.721  13.540  0.2671 -0.2458 -0.3502
 2829DECAN   C128271   3.524   4.135   7.280  0.3053 -0.7104 -0.1047
 2829DECAN   C228272   3.672   4.161   7.250  0.0806  0.3530 -0.3304
 2829DECAN   C328273   3.761   4.035   7.258 -0.2941  0.0905 -0.2795
 2829DECAN   C428274   3.912   4.058   7.236 -0.0785 -0.4625  0.5652
 2829DECAN   C528275   4.004   3.936   7.258  0.1859 -0.4663 -0.4819
 2829DECAN   C628276   4.149   3.972   7.292  0.1975 -0.0535 -0.9570
 2829DECAN   C728277   4.236   3.845   7.282  0.0154 -0.2725  0.1106
 2829DECAN   C828278   4.387   3.875   7.295  0.0636 -0.5118  0.0961
 2829DECAN   C928279   4.453   3.751   7.232  0.6637 -0.3072  0.3224
 2829DECAN  C1028280   4.438   3.719   7.082 -0.5714  0.8228  0.1965
 2830DECAN   C128281   8.699   9.572   5.041  0.4127 -0.2722 -0.2141
 2830DECAN   C228282   8.769   9.691   5.110 -0.4669  0.0443  0.1485
 2830DECAN   C328283   8.711   9.832   5.089  0.0477  0.2057 -0.2085
 2830DECAN   C428284   8.731   9.887   4.947 -0.2943 -0.0636 -0.3623
 2830DECAN   C528285   8.687  10.034   4.930  0.7119  0.2918 -0.0144
 2830DECAN   C628286   8.739  10.108   4.806 -0.2280  0.0126 -0.5903
 2830DECAN   C728287   8.653  10.229   4.765 -0.2518  0.2483  0.1348
 2830DECAN   C828288   8.667  10.262   4.616  0.1486  0.1558  0.1521
 2830DECAN   C928289   8.586  10.386   4.574 -0.3370 -0.3939 -0.5508
 2830DECAN  C1028290   8.574  10.401   4.421  0.6028  0.2926 -0.5609
 2831DECAN   C128291  10.254   7.177  14.886  0.1721  0.2968  0.1787
 2831DECAN   C228292  10.172   7.308  14.893 -0.6331 -0.2053  0.2814
 2831DECAN   C328293  10.113   7.376  14.769  0.1031 -0.1156 -0.0227
 2831DECAN   C428294  10.069   7.520  14.800  0.0929 -0.1000 -0.1091
 2831DECAN   C528295   9.997   7.542  14.934  0.0372  0.4768 -0.2289
 2831DECAN   C628296   9.892   7.433  14.962 -0.0623  0.5783 -0.2056
 2831DECAN   C728297   9.830   7.444  15.103 -0.1882  0.4057 -0.2473
 2831DECAN   C828298   9.732   7.562  15.122  0.0110  0.5640 -0.1875
 2831DECAN   C928299   9.600   7.537  15.046 -0.1419  0.2277  0.1842
 2831DECAN  C1028300   9.510   7.422  15.095 -0.0203  0.0755  0.0513
 2832DECAN   C128301   1.714   8.469   7.620 -0.2579 -0.2895  0.5638
 2832DECAN   C228302   1.658   8.438   7.480  0.1188 -0.5869  0.4765
 2832DECAN   C328303   1.767   8.438   7.372 -0.7724  0.3904 -0.4500
 2832DECAN   C428304   1.723   8.387   7.234 -0.5509  0.1730 -0.4416
 2832DECAN   C528305   1.696   8.236   7.220  0.4375 -0.0444 -0.0378
 2832DECAN   C628306   1.649   8.173   7.088  0.2292 -0.2724  0.1440
 2832DECAN   C728307   1.519   8.215   7.016  0.4909  0.3796  0.0365
 2832DECAN   C828308   1.486   8.144   6.884 -0.2530  0.3859  0.2142
 2832DECAN   C928309   1.446   7.999   6.915  0.5373  0.0729 -0.2142
 2832DECAN  C1028310   1.546   7.895   6.970  0.1166 -0.0662  0.2993
 2833DECAN   C128311   5.651   7.074  10.983 -0.0539 -0.4197 -0.0943
 2833DECAN   C228312   5.722   7.199  10.927  0.1776 -0.3022  0.4611
 2833DECAN   C328313   5.858   7.162  10.866 -0.0215  0.3864 -0.4279
 2833DECAN   C428314   5.933   7.282  10.808 -0.2740  0.7053 -0.0979
 2833DECAN   C528315   6.062   7.232  10.739 -0.2348  0.3149  0.2590
 2833DECAN   C628316   6.133   7.340  10.656  0.5047 -0.3518  0.0133
 2833DECAN   C728317   6.272   7.300  10.603  0.5519 -0.4168  0.1863
 2833DECAN   C828318   6.345   7.418  10.536 -0.0670 -0.1671 -0.0603
 2833DECAN   C928319   6.473   7.375  10.462  0.3575  0.4638  0.2928
 2833DECAN  C1028320   6.545   7.492  10.393  0.0125  0.5078  0.0052
 2834DECAN   C128321   8.865   5.005  12.657 -0.1820 -0.3516  0.0547
 2834DECAN   C228322   8.796   4.958  12.786  0.5718 -0.5988  0.3697
 2834DECAN   C328323   8.665   4.878  12.775  0.0750  0.2154  0.2917
 2834DECAN   C428324   8.578   4.877  12.902 -0.0073  0.0538  0.2327
 2834DECAN   C528325   8.640   4.794  13.016 -0.4119 -0.3475  0.1641
 2834DECAN   C628326   8.730   4.683  12.959 -0.4450 -0.4927  0.3941
 2834DECAN   C728327   8.777   4.586  13.069  0.3596 -0.3091  0.2201
 2834DECAN   C828328   8.824   4.651  13.201  0.0434 -0.4358  0.3965
 2834DECAN   C928329   8.892   4.538  13.280 -0.0999 -0.5835  0.3094
 2834DECAN  C1028330   8.952   4.589  13.412  0.7949  0.1789 -0.3767
 2835DECAN   C128331  11.181  10.101   9.985 -0.3620  0.7005  0.0528
 2835DECAN   C228332  11.048  10.024   9.993  0.0519 -0.0347 -0.1172
 2835DECAN   C328333  10.934  10.115   9.945  0.0275  0.2719  0.5198
 2835DECAN   C428334  10.795  10.061   9.982 -0.2029  0.2326 -0.3906
 2835DECAN   C528335  10.675  10.149   9.942 -0.0264  0.3249 -0.7223
 2835DECAN   C628336  10.534  10.087   9.941  0.0851  0.0030  0.7348
 2835DECAN   C728337  10.528   9.973   9.837 -0.1311  0.1473  0.5895
 2835DECAN   C828338  10.386   9.965   9.778  0.0400 -0.0946  0.2055
 2835DECAN   C928339  10.357  10.083   9.684  0.3652  0.4390  0.7624
 2835DECAN  C1028340  10.451  10.071   9.562 -0.5461  0.1674  0.0763
 2836DECAN   C128341   7.573   8.602   7.866 -0.4299  0.1815 -0.2364
 2836DECAN   C228342   7.584   8.752   7.900  0.7493  0.0260  0.0945
 2836DECAN   C328343   7.527   8.786   8.039 -0.0073 -0.5508 -0.0725
 2836DECAN   C428344   7.551   8.929   8.088  0.0806 -0.5309 -0.1735
 2836DECAN   C528345   7.699   8.969   8.099 -0.0733 -0.0401  0.1767
 2836DECAN   C628346   7.779   8.934   7.972 -0.2155  0.2064  0.0186
 2836DECAN   C728347   7.915   9.007   7.978  0.0273 -0.2615  0.2255
 2836DECAN   C828348   8.025   8.964   7.881  0.1488 -0.1262  0.3027
 2836DECAN   C928349   8.127   9.073   7.845  0.2122 -0.0919  0.5875
 2836DECAN  C1028350   8.264   9.058   7.914  0.8062 -0.0678 -0.5508
 2837DECAN   C128351   3.497   1.128   8.211 -0.3300 -0.2075  0.6555
 2837DECAN   C228352   3.386   1.053   8.287 -0.5512  0.1030  0.6387
 2837DECAN   C328353   3.402   0.901   8.305 -0.3415  0.0348 -0.0898
 2837DECAN   C428354   3.267   0.829   8.322 -0.2314 -0.1547 -0.0095
 2837DECAN   C528355   3.287   0.677   8.325  0.1248 -0.1064  0.1113
 2837DECAN   C628356   3.291   0.609   8.186  0.2609 -0.2906  0.2042
 2837DECAN   C728357   3.280   0.457   8.170 -0.1725 -0.2339 -0.0712
 2837DECAN   C828358   3.241   0.431   8.024  0.4348 -0.1930 -0.2430
 2837DECAN   C928359   3.183   0.291   8.000 -0.5519  0.0420  0.7185
 2837DECAN  C1028360   3.268   0.175   8.055 -0.5353 -0.6158 -0.6389
 2838DECAN   C128361   1.267  10.222   9.018  0.0017  0.2708  0.2821
 2838DECAN   C228362   1.306  10.084   8.962  0.0800  0.5499 -0.3605
 2838DECAN   C328363   1.432  10.028   9.030 -0.3492 -0.0150 -0.0172
 2838DECAN   C428364   1.477   9.902   8.954 -0.1279  0.5322 -0.8052
 2838DECAN   C528365   1.581   9.810   9.022 -0.4907  0.4577 -0.3500
 2838DECAN   C628366   1.648   9.708   8.929 -0.4756  0.0446  0.1119
 2838DECAN   C728367   1.711   9.779   8.808  0.1745  0.1559  0.5108
 2838DECAN   C828368   1.790   9.683   8.718  0.0821 -0.1441  0.7498
 2838DECAN   C928369   1.691   9.588   8.646  0.3869  0.2036 -0.1471
 2838DECAN  C1028370   1.575   9.658   8.573 -0.4399 -0.6562  0.3171
 2839DECAN   C128371   5.319   9.381  11.583  0.3141  0.5201 -0.3052
 2839DECAN   C228372   5.304   9.403  11.432  0.2511 -0.0031 -0.3777
 2839DECAN   C328373   5.168   9.467  11.396 -0.2518 -0.6308  0.3787
 2839DECAN   C428374   5.169   9.505  11.247  0.4361 -0.5824  0.3924
 2839DECAN   C528375   5.171   9.397  11.138 -1.1602 -0.2596  0.0146
 2839DECAN   C628376   5.156   9.446  10.993 -0.1988 -0.0703 -0.0302
 2839DECAN   C728377   5.195   9.348  10.880  0.0864  0.3569 -0.3068
 2839DECAN   C828378   5.171   9.399  10.737 -0.2920  0.8890 -0.0574
 2839DECAN   C928379   5.200   9.292  10.630 -0.3616  0.4792  0.3332
 2839DECAN  C1028380   5.233   9.362  10.497  0.2966 -0.4657 -0.0102
 2840DECAN   C128381   8.347   8.374   9.188 -0.6995 -0.5623 -0.0464
 2840DECAN   C228382   8.327   8.457   9.060  0.2729  0.2866  0.3342
 2840DECAN   C328383   8.222   8.569   9.065 -0.0778 -0.0108 -0.2656
 2840DECAN   C428384   8.085   8.534   9.125  0.1142 -0.4291 -0.0696
 2840DECAN   C528385   7.994   8.658   9.122  0.2070 -0.3703 -0.4856
 2840DECAN   C628386   7.992   8.720   8.981 -0.3764  0.0574 -0.2918
 2840DECAN   C728387   7.927   8.860   8.974 -0.2403  0.1313 -0.1131
 2840DECAN   C828388   7.934   8.933   8.839  0.4803  0.3329  0.0286
 2840DECAN   C928389   7.869   9.072   8.825 -0.4914 -0.0627  0.5114
 2840DECAN  C1028390   7.941   9.176   8.912  0.5670 -0.2106 -0.1756
 2841DECAN   C128391   2.665   3.141   4.774 -0.4024  0.2872  0.1186
 2841DECAN   C228392   2.758   3.203   4.880 -0.1689 -0.0446  0.1082
 2841DECAN   C328393   2.722   3.145   5.017 -0.1782 -0.3508 -0.0224
 2841DECAN   C428394   2.716   2.991   5.023 -0.6534 -0.3423 -0.2212
 2841DECAN   C528395   2.695   2.936   5.165  0.1135  0.2091  0.1140
 2841DECAN   C628396   2.823   2.956   5.249  0.0614  0.3013  0.1708
 2841DECAN   C728397   2.815   2.870   5.377  0.1202  0.6526  0.4131
 2841DECAN   C828398   2.939   2.846   5.465  0.2295  0.1200  0.1260
 2841DECAN   C928399   2.926   2.746   5.581  0.5648  0.3526  0.3679
 2841DECAN  C1028400   3.060   2.693   5.635  0.3080 -0.3834  0.3022
 2842DECAN   C128401   4.296   4.684   4.829 -0.2814 -0.1727 -0.3399
 2842DECAN   C228402   4.425   4.766   4.851 -0.4213 -0.2599  0.8507
 2842DECAN   C328403   4.454   4.798   4.999  0.3589 -0.6687  0.7938
 2842DECAN   C428404   4.593   4.860   5.019 -0.0112  0.6244 -0.4711
 2842DECAN   C528405   4.632   4.868   5.168 -0.2807  0.0946 -0.3688
 2842DECAN   C628406   4.760   4.950   5.190 -0.0479 -0.2577 -0.4050
 2842DECAN   C728407   4.896   4.888   5.152  0.4652  0.4738  0.2097
 2842DECAN   C828408   4.938   4.754   5.216  0.4091  0.0589 -0.6145
 2842DECAN   C928409   5.077   4.701   5.175  0.3927  0.0523 -0.6610
 2842DECAN  C1028410   5.125   4.578   5.253  0.2720  0.1752 -0.3916
 2843DECAN   C128411   4.407   9.897  11.876 -0.7121 -0.1523  0.5426
 2843DECAN   C228412   4.371   9.749  11.854  0.1767 -0.3068  0.0869
 2843DECAN   C328413   4.220   9.724  11.836  0.0282  0.7801 -0.2470
 2843DECAN   C428414   4.161   9.591  11.886  0.3786  0.6821 -0.0931
 2843DECAN   C528415   4.009   9.581  11.867  0.4352 -0.0307 -0.1970
 2843DECAN   C628416   3.955   9.448  11.923 -0.2324  0.1959 -0.2897
 2843DECAN   C728417   3.805   9.426  11.899 -0.2177  0.0684 -0.2663
 2843DECAN   C828418   3.716   9.333  11.984 -0.1968  0.0669 -0.2462
 2843DECAN   C928419   3.680   9.395  12.121  0.0529 -0.2003 -0.0572
 2843DECAN  C1028420   3.641   9.297  12.233  0.0443 -0.3942 -0.2259
 2844DECAN   C128421   5.704   6.359  14.247 -0.1369  0.7097  0.1906
 2844DECAN   C228422   5.727   6.302  14.389 -0.2997  0.5420  0.1487
 2844DECAN   C328423   5.658   6.387  14.497 -0.2358  0.4134  0.2903
 2844DECAN   C428424   5.708   6.532  14.506  0.5067  0.1940 -0.1906
 2844DECAN   C528425   5.846   6.553  14.570  0.3015  0.2079  0.2560
 2844DECAN   C628426   5.908   6.693  14.547  0.5670  0.0495 -0.0032
 2844DECAN   C728427   5.823   6.799  14.620  0.3547 -0.2399  0.1757
 2844DECAN   C828428   5.878   6.943  14.618 -0.3471  0.0286  0.1236
 2844DECAN   C928429   5.782   7.049  14.675 -0.8062 -0.3434  0.0493
 2844DECAN  C1028430   5.816   7.198  14.657 -0.7744 -0.3380  0.1503
 2845DECAN   C128431   2.201   5.996  11.529 -0.7999 -0.2214 -0.2149
 2845DECAN   C228432   2.259   5.888  11.436  0.3567  0.1059  0.1096
 2845DECAN   C328433   2.355   5.790  11.506 -0.1675 -0.3001  0.2666
 2845DECAN   C428434   2.417   5.678  11.420 -0.2658  0.2520 -0.5393
 2845DECAN   C528435   2.506   5.732  11.307  0.0452  0.6843 -0.0889
 2845DECAN   C628436   2.573   5.625  11.219 -0.5998  0.3266 -0.1506
 2845DECAN   C728437   2.690   5.666  11.127 -0.2334 -0.2270  0.0627
 2845DECAN   C828438   2.732   5.547  11.038  0.0350 -0.1250  0.0512
 2845DECAN   C928439   2.874   5.564  10.982  0.1583 -0.5783  0.2175
 2845DECAN  C1028440   2.992   5.582  11.079  0.0455  0.7499  0.1249
 2846DECAN   C128441   8.298   1.524   5.676  0.0868  0.2432 -0.1568
 2846DECAN   C228442   8.161   1.478   5.622  0.1631  0.1037 -0.2335
 2846DECAN   C328443   8.177   1.361   5.523 -0.4746  0.1690 -0.4161
 2846DECAN   C428444   8.052   1.341   5.435 -0.7033 -0.4219  0.0356
 2846DECAN   C528445   8.053   1.392   5.289 -0.0289 -0.1039  0.1474
 2846DECAN   C628446   7.926   1.354   5.210  0.1370  0.2512 -0.2919
 2846DECAN   C728447   7.932   1.372   5.057  0.0412 -0.1730 -0.3465
 2846DECAN   C828448   7.807   1.333   4.976 -0.4037  0.4812  0.0064
 2846DECAN   C928449   7.830   1.332   4.823 -0.1714  0.1713  0.0423
 2846DECAN  C1028450   7.713   1.405   4.755 -0.2198 -0.0510 -0.1151
 2847DECAN   C128451   4.222   8.377   9.771  0.0192 -0.3149  0.0952
 2847DECAN   C228452   4.351   8.411   9.695 -0.2568  0.1273 -0.1804
 2847DECAN   C328453   4.355   8.357   9.550 -0.3159 -0.0860 -0.1033
 2847DECAN   C428454   4.479   8.370   9.460 -0.6772  0.8960 -0.4778
 2847DECAN   C528455   4.482   8.275   9.339  0.4380 -0.0637  0.2754
 2847DECAN   C628456   4.564   8.336   9.224 -0.3567  0.4263 -0.0409
 2847DECAN   C728457   4.543   8.240   9.106 -0.1780  0.2658  0.0592
 2847DECAN   C828458   4.605   8.103   9.141 -0.3143  0.2002  0.0506
 2847DECAN   C928459   4.532   8.026   9.252  0.5567 -0.4175  0.2021
 2847DECAN  C1028460   4.597   7.887   9.269 -0.3938 -0.9415 -0.3644
 2848DECAN   C128461   8.333   0.992  11.936 -0.2972  0.2487 -0.3404
 2848DECAN   C228462   8.453   1.089  11.940 -0.1428  0.0389  0.0991
 2848DECAN   C328463   8.416   1.236  11.966 -0.2814  0.0084  0.0746
 2848DECAN   C428464   8.399   1.302  11.828  0.0432  0.1711  0.1107
 2848DECAN   C528465   8.325   1.438  11.830  0.2441  0.2776  0.4577
 2848DECAN   C628466   8.198   1.455  11.915  0.0704 -0.3944  0.3427
 2848DECAN   C728467   8.216   1.444  12.068  0.1544 -0.4762  0.3267
 2848DECAN   C828468   8.085   1.429  12.147 -0.5381 -0.1706 -0.7293
 2848DECAN   C928469   8.104   1.423  12.300  0.3626  0.2465 -0.8140
 2848DECAN  C1028470   8.206   1.324  12.359 -0.1270  0.5033  0.4895
 2849DECAN   C128471   1.218   9.728   8.716 -0.5547 -0.5133  0.0056
 2849DECAN   C228472   1.136   9.712   8.845 -0.2769  0.2702  0.2848
 2849DECAN   C328473   1.196   9.618   8.952 -0.0493 -0.1321 -0.1953
 2849DECAN   C428474   1.090   9.519   9.002  0.3005 -0.5515 -0.2758
 2849DECAN   C528475   1.146   9.416   9.101  0.0386  0.2045  0.6734
 2849DECAN   C628476   1.265   9.337   9.043 -0.1100  0.1072  0.5026
 2849DECAN   C728477   1.389   9.429   9.036 -0.0093 -0.0524  0.1712
 2849DECAN   C828478   1.507   9.374   8.954  0.0015  0.5411 -0.2176
 2849DECAN   C928479   1.471   9.339   8.808  0.0579 -0.0197 -0.0993
 2849DECAN  C1028480   1.589   9.274   8.734  0.7630  0.1819  0.8187
 2850DECAN   C128481   8.301   0.002  14.790 -0.0821  0.4978  0.5059
 2850DECAN   C228482   8.224  11.114  14.802  0.1835  0.2388 -0.5681
 2850DECAN   C328483   8.071  11.134  14.798  0.1175 -0.0410  0.2674
 2850DECAN   C428484   7.984  11.008  14.809 -0.0478  0.0091 -0.3941
 2850DECAN   C528485   7.834  11.037  14.828 -0.0630 -0.4117  0.1769
 2850DECAN   C628486   7.734  10.921  14.844 -0.7459  0.3022  1.2058
 2850DECAN   C728487   7.585  10.961  14.837 -0.5995  0.6935  0.0813
 2850DECAN   C828488   7.476  10.855  14.861 -0.0782  0.2003  0.3013
 2850DECAN   C928489   7.344  10.925  14.898 -0.0677  0.4248 -0.0817
 2850DECAN  C1028490   7.230  10.829  14.934  0.9330 -0.8154 -0.1641
 2851DECAN   C128491   4.988   3.900  13.060 -0.0306 -0.1434 -0.1557
 2851DECAN   C228492   4.893   3.965  12.958  0.4835 -0.2854 -0.7305
 2851DECAN   C328493   4.779   3.876  12.903 -0.0620  0.3292 -0.6065
 2851DECAN   C428494   4.827   3.756  12.819  0.2112  0.3389 -0.4668
 2851DECAN   C528495   4.732   3.635  12.816  0.3367  0.2276 -0.0496
 2851DECAN   C628496   4.795   3.528  12.724  0.1431 -0.0164  0.1016
 2851DECAN   C728497   4.780   3.547  12.572 -0.0166  0.3827  0.1648
 2851DECAN   C828498   4.839   3.679  12.519  0.4374  0.1640  0.1176
 2851DECAN   C928499   4.850   3.699  12.367  0.6549  0.3038  0.1520
 2851DECAN  C1028500   4.877   3.847  12.335 -0.7803  0.4452 -0.4740
 2852DECAN   C128501  10.540   5.402   6.673  0.0188  0.2166 -0.3822
 2852DECAN   C228502  10.490   5.285   6.586 -0.2348 -0.0889  0.1653
 2852DECAN   C328503  10.611   5.209   6.528 -0.3654  0.0763 -0.3298
 2852DECAN   C428504  10.554   5.089   6.450 -0.0202 -0.3710  0.0996
 2852DECAN   C528505  10.455   5.132   6.340 -0.0369 -0.4588  0.0797
 2852DECAN   C628506  10.314   5.152   6.400  0.0577  0.4960 -0.0040
 2852DECAN   C728507  10.221   5.189   6.283 -0.4231 -0.1075  0.1883
 2852DECAN   C828508  10.194   5.070   6.189 -0.0151  0.1167 -0.2145
 2852DECAN   C928509  10.097   5.090   6.070  0.0747  0.3001 -0.2575
 2852DECAN  C1028510   9.948   5.066   6.098  0.3627 -0.4625  0.6986
 2853DECAN   C128511   3.122   1.812   5.509 -0.0592 -0.4236 -0.1882
 2853DECAN   C228512   3.231   1.917   5.480 -0.3219  0.1041  0.6700
 2853DECAN   C328513   3.331   1.958   5.589  0.0862 -0.1215  0.3828
 2853DECAN   C428514   3.264   2.006   5.719  0.5955  0.1218  0.5592
 2853DECAN   C528515   3.356   2.043   5.837  0.4687 -0.8157  0.9583
 2853DECAN   C628516   3.462   2.149   5.801 -0.2267 -0.3858  0.1371
 2853DECAN   C728517   3.563   2.087   5.703  0.4866  0.0446  0.5913
 2853DECAN   C828518   3.660   2.179   5.627  0.3188 -0.4886 -0.2852
 2853DECAN   C928519   3.736   2.114   5.510 -0.2288 -0.3464 -0.7273
 2853DECAN  C1028520   3.840   2.210   5.449 -0.4488  0.2887 -0.1118
 2854DECAN   C128521   9.455   2.123  11.347  0.0704 -0.6952 -0.2535
 2854DECAN   C228522   9.537   2.065  11.464  0.3842  0.2623  0.0109
 2854DECAN   C328523   9.659   1.982  11.420  0.1291  0.0262 -0.2602
 2854DECAN   C428524   9.615   1.842  11.373  0.0612  0.1776 -0.6531
 2854DECAN   C528525   9.733   1.743  11.365 -0.3829 -0.4120 -0.0811
 2854DECAN   C628526   9.715   1.599  11.313  0.3383 -0.3258 -0.5842
 2854DECAN   C728527   9.845   1.517  11.318  0.7618  0.3253 -0.7030
 2854DECAN   C828528   9.840   1.363  11.314 -0.5319  0.3643 -0.9307
 2854DECAN   C928529   9.980   1.300  11.300 -0.6703 -0.2567  0.2953
 2854DECAN  C1028530   9.983   1.147  11.291  0.1183 -0.2254 -0.1034
 2855DECAN   C128531   8.421   4.009  10.653 -0.3978 -0.7501  0.2505
 2855DECAN   C228532   8.382   4.010  10.802 -0.5372  0.2129  0.2131
 2855DECAN   C328533   8.398   4.140  10.884  0.5414  0.3556 -0.2117
 2855DECAN   C428534   8.503   4.144  10.996 -0.1426  0.0371  0.4443
 2855DECAN   C528535   8.648   4.156  10.947 -0.3539  0.6522 -0.0448
 2855DECAN   C628536   8.746   4.228  11.041 -0.1216  0.0797  0.1546
 2855DECAN   C728537   8.894   4.222  10.998 -0.0614 -0.1546  0.3863
 2855DECAN   C828538   9.006   4.274  11.090  0.0516  0.3927 -0.0564
 2855DECAN   C928539   9.150   4.283  11.036 -0.0134 -0.1772 -0.3354
 2855DECAN  C1028540   9.248   4.349  11.134  0.3188 -0.3930 -0.5198
 2856DECAN   C128541   1.975   4.186  11.690  0.0107 -0.5434 -0.1356
 2856DECAN   C228542   1.866   4.085  11.648 -0.4193  0.1441 -0.7093
 2856DECAN   C328543   1.815   4.023  11.779 -0.0325 -0.0575 -0.6518
 2856DECAN   C428544   1.669   3.975  11.761 -0.0617 -0.0466 -0.4370
 2856DECAN   C528545   1.623   3.895  11.885  0.0894  0.2768 -0.1688
 2856DECAN   C628546   1.678   3.958  12.014  0.0355 -0.2380  0.1067
 2856DECAN   C728547   1.653   3.864  12.134  0.0071 -0.3205  0.0375
 2856DECAN   C828548   1.520   3.900  12.202 -0.0343  0.3052 -0.3657
 2856DECAN   C928549   1.401   3.835  12.129 -0.2206  0.4341 -0.1787
 2856DECAN  C1028550   1.272   3.919  12.141 -0.3455  0.1933  0.1740
 2857DECAN   C128551   5.492   6.310   9.989 -0.1017 -0.1030 -0.1240
 2857DECAN   C228552   5.444   6.221  10.105  0.1888 -0.0228  0.0586
 2857DECAN   C328553   5.567   6.155  10.170 -0.0161 -0.5662 -0.1089
 2857DECAN   C428554   5.535   6.048  10.277  0.1203 -0.2743  0.2267
 2857DECAN   C528555   5.661   5.987  10.340  0.3158 -0.2109 -0.1017
 2857DECAN   C628556   5.763   6.099  10.365 -0.5020  0.3963  0.5614
 2857DECAN   C728557   5.903   6.056  10.414 -0.3150  0.0805 -0.2343
 2857DECAN   C828558   5.910   6.000  10.557  0.4653 -0.3331 -0.4309
 2857DECAN   C928559   6.049   5.950  10.602  0.3617 -0.2332  0.0024
 2857DECAN  C1028560   6.157   6.059  10.589  0.6969 -0.5429  0.1915
 2858DECAN   C128561   7.916   1.241  13.468  0.3853 -0.4420 -0.2840
 2858DECAN   C228562   8.038   1.158  13.512  0.0921 -0.5516  0.3348
 2858DECAN   C328563   8.039   1.014  13.457 -0.6093 -0.5400  0.2789
 2858DECAN   C428564   8.150   0.932  13.524  0.0501 -0.0851 -0.2376
 2858DECAN   C528565   8.192   0.800  13.456 -0.1360 -0.3474  0.1518
 2858DECAN   C628566   8.297   0.721  13.536 -0.0885 -0.2640  0.1727
 2858DECAN   C728567   8.355   0.592  13.474  0.0044 -0.3757  0.4898
 2858DECAN   C828568   8.444   0.496  13.555  0.1125 -0.4905  0.2363
 2858DECAN   C928569   8.488   0.374  13.472  0.3643 -0.4724  0.3459
 2858DECAN  C1028570   8.531   0.428  13.334 -0.1668  0.0054  0.3609
 2859DECAN   C128571   4.289   0.928  13.663 -0.3142 -0.0341 -0.4526
 2859DECAN   C228572   4.207   0.942  13.792 -0.0423 -0.2320 -0.2570
 2859DECAN   C328573   4.196   0.816  13.880  0.1612 -0.0716 -0.0036
 2859DECAN   C428574   4.098   0.840  13.996  0.3699  0.1714  0.1249
 2859DECAN   C528575   4.090   0.716  14.088  0.0163  0.0692 -0.0409
 2859DECAN   C628576   3.969   0.725  14.182  0.1266  0.0006  0.1086
 2859DECAN   C728577   3.961   0.610  14.283 -0.2302 -0.5695 -0.5593
 2859DECAN   C828578   4.079   0.622  14.381 -0.3955  0.4071 -0.4700
 2859DECAN   C928579   4.207   0.608  14.296  0.0490 -0.2227  0.2856
 2859DECAN  C1028580   4.339   0.634  14.371 -0.3025  0.6737  0.6107
 2860DECAN   C128581   6.950   5.478  15.165 -0.0335  0.2262  0.1000
 2860DECAN   C228582   6.799   5.451  15.151 -0.1166  0.2853  0.8018
 2860DECAN   C328583   6.734   5.574  15.086 -0.3003 -0.4895 -0.5302
 2860DECAN   C428584   6.587   5.561  15.043 -0.5517 -0.1970  0.2148
 2860DECAN   C528585   6.518   5.673  14.962 -0.1946  0.0969  0.3181
 2860DECAN   C628586   6.392   5.610  14.901 -0.2083  0.3518  0.0797
 2860DECAN   C728587   6.332   5.701  14.792  0.2617  0.4838 -0.0680
 2860DECAN   C828588   6.215   5.660  14.702  0.2218  0.2132  0.1069
 2860DECAN   C928589   6.184   5.761  14.590 -0.1824 -0.0213  0.0036
 2860DECAN  C1028590   6.068   5.717  14.499  0.1864  0.0097 -0.4885
 2861DECAN   C128591   6.503   1.664  10.584  0.5533 -0.1417  0.0633
 2861DECAN   C228592   6.483   1.800  10.514  0.7336 -0.1010  0.0896
 2861DECAN   C328593   6.563   1.906  10.592  0.2337  0.4992 -0.2071
 2861DECAN   C428594   6.555   2.049  10.535 -0.5552  0.8348  0.7091
 2861DECAN   C528595   6.680   2.136  10.562  0.2920 -0.2099  0.2290
 2861DECAN   C628596   6.820   2.088  10.518  0.0344 -0.6568 -0.1109
 2861DECAN   C728597   6.939   2.178  10.555 -0.5826  0.0315  0.2396
 2861DECAN   C828598   7.064   2.126  10.481 -0.6477  0.3074 -0.0670
 2861DECAN   C928599   7.184   2.198  10.546 -0.1586 -0.0365 -0.5790
 2861DECAN  C1028600   7.320   2.148  10.495  0.2229  0.5584 -0.1621
 2862DECAN   C128601   4.492   8.903   4.023 -0.0974  0.5437  0.0896
 2862DECAN   C228602   4.629   8.881   3.956 -0.0763 -0.2042  0.3699
 2862DECAN   C328603   4.711   9.011   3.968 -0.1136 -0.1566  0.0989
 2862DECAN   C428604   4.855   9.002   3.916  0.0340 -0.1869  0.5119
 2862DECAN   C528605   4.933   9.125   3.966 -0.3411  0.1015  0.3871
 2862DECAN   C628606   5.084   9.127   3.936 -0.2758  0.1052  0.7194
 2862DECAN   C728607   5.143   9.263   3.979  0.2120  0.3600 -0.7267
 2862DECAN   C828608   5.292   9.282   3.943  0.5688 -0.5683  0.2042
 2862DECAN   C928609   5.343   9.427   3.937  0.0589 -0.3983 -0.0912
 2862DECAN  C1028610   5.497   9.434   3.941  0.0311  0.1718  0.0455
 2863DECAN   C128611   9.634   0.648  14.688 -0.1400  0.5537 -0.0241
 2863DECAN   C228612   9.498   0.686  14.749  0.1583  0.6253  0.6039
 2863DECAN   C328613   9.376   0.679  14.655  0.4140  0.1261  0.3100
 2863DECAN   C428614   9.243   0.711  14.724 -0.3049 -0.2730 -0.8683
 2863DECAN   C528615   9.212   0.613  14.839  0.1911  0.5523 -0.0216
 2863DECAN   C628616   9.168   0.473  14.791 -0.6324  0.6176  0.5150
 2863DECAN   C728617   9.160   0.377  14.911  0.1530 -0.3294 -0.1812
 2863DECAN   C828618   9.113   0.240  14.859 -0.2262 -0.3550  0.2288
 2863DECAN   C928619   9.223   0.156  14.792 -0.0205  0.0380  0.0724
 2863DECAN  C1028620   9.325   0.110  14.898 -0.0101 -0.5705 -0.1958
 2864DECAN   C128621   3.392   5.514  12.628 -0.0473 -0.1860  0.1205
 2864DECAN   C228622   3.492   5.598  12.546  0.2223 -0.1549  0.4817
 2864DECAN   C328623   3.635   5.542  12.558  0.3963  0.2816  0.4663
 2864DECAN   C428624   3.735   5.540  12.441 -0.2866 -0.0251 -0.1213
 2864DECAN   C528625   3.808   5.670  12.403 -0.0717 -0.1479 -0.1313
 2864DECAN   C628626   3.916   5.658  12.294  0.2958  0.3649  0.1735
 2864DECAN   C728627   4.005   5.783  12.281  0.7084  0.0518 -0.0445
 2864DECAN   C828628   4.042   5.816  12.135  0.6443 -0.4192 -0.1688
 2864DECAN   C928629   4.149   5.924  12.109  0.3590 -0.1182 -0.0882
 2864DECAN  C1028630   4.287   5.902  12.172  0.5052  0.3403 -0.2426
 2865DECAN   C128631   7.707   0.677   6.808 -0.4480 -0.3766 -0.2183
 2865DECAN   C228632   7.836   0.629   6.877 -0.2808  0.0448 -0.2358
 2865DECAN   C328633   7.900   0.498   6.827  0.1253  0.1173  0.0957
 2865DECAN   C428634   8.032   0.480   6.904  0.1713  0.1758  0.0317
 2865DECAN   C528635   8.146   0.559   6.837  0.0403  0.3693  0.0375
 2865DECAN   C628636   8.277   0.578   6.916  0.2623 -0.2696 -0.1749
 2865DECAN   C728637   8.359   0.697   6.862  0.1267 -0.2414 -0.3188
 2865DECAN   C828638   8.487   0.719   6.945 -0.3956  0.3461  0.3472
 2865DECAN   C928639   8.602   0.772   6.857 -0.1636 -0.5966  0.0687
 2865DECAN  C1028640   8.720   0.805   6.950 -0.3737  0.1914  0.0619
 2866DECAN   C128641   5.724   9.762   7.019  0.0992  0.3231  0.0612
 2866DECAN   C228642   5.668   9.774   7.162  0.3927  0.0573  0.2003
 2866DECAN   C328643   5.746   9.694   7.268  0.2632 -0.5464 -0.1574
 2866DECAN   C428644   5.704   9.713   7.414 -0.1838  0.2557 -0.3821
 2866DECAN   C528645   5.801   9.655   7.519 -0.3967  0.1021 -0.2679
 2866DECAN   C628646   5.768   9.675   7.668  0.1840 -0.1665 -0.1006
 2866DECAN   C728647   5.815   9.561   7.760  0.0976  0.0795  0.2503
 2866DECAN   C828648   5.754   9.424   7.724  0.4176 -0.0620  0.2400
 2866DECAN   C928649   5.600   9.429   7.735  0.3705 -0.1618 -0.3313
 2866DECAN  C1028650   5.512   9.305   7.716  0.1585 -0.1447  0.4804
 2867DECAN   C128651   6.624   6.641   8.974 -0.0200 -0.4181  0.0847
 2867DECAN   C228652   6.688   6.624   8.835  0.0965  0.5109  0.0162
 2867DECAN   C328653   6.821   6.547   8.819  0.1940  0.6178  0.2901
 2867DECAN   C428654   6.868   6.501   8.680 -0.1697  0.0926  0.3379
 2867DECAN   C528655   6.994   6.413   8.695  0.0930  0.3506 -0.3137
 2867DECAN   C628656   7.054   6.376   8.558  0.2257  0.0199 -0.1676
 2867DECAN   C728657   7.181   6.293   8.578  0.0323 -0.0987  0.6139
 2867DECAN   C828658   7.228   6.220   8.450 -0.2457  0.2748  0.2974
 2867DECAN   C928659   7.351   6.131   8.475 -0.1148  0.3929  0.0695
 2867DECAN  C1028660   7.483   6.206   8.503  0.1514  0.1311 -0.4740
 2868DECAN   C128661   3.793   3.944   4.302  0.0324 -0.1943  0.3035
 2868DECAN   C228662   3.853   3.893   4.435  0.0932  0.3608  0.4929
 2868DECAN   C328663   3.791   3.755   4.462 -0.4015  0.5682  0.4202
 2868DECAN   C428664   3.831   3.692   4.597  0.7370 -0.0632 -0.1985
 2868DECAN   C528665   3.978   3.705   4.640  0.8506 -0.7807 -0.3651
 2868DECAN   C628666   4.026   3.626   4.763  0.0043  0.2846  0.6790
 2868DECAN   C728667   4.136   3.698   4.843  0.5990 -0.2407  0.3471
 2868DECAN   C828668   4.185   3.619   4.966 -0.0795 -0.1967  0.6482
 2868DECAN   C928669   4.276   3.706   5.054  0.5311 -0.0234 -0.1411
 2868DECAN  C1028670   4.329   3.619   5.170 -0.3542  0.1495  0.4004
 2869DECAN   C128671   5.469   6.880   8.089 -0.1170  0.5279 -0.2977
 2869DECAN   C228672   5.593   6.811   8.150  0.2639  0.6979 -0.8749
 2869DECAN   C328673   5.671   6.901   8.247 -0.2864  0.3200 -0.0689
 2869DECAN   C428674   5.765   6.816   8.334  0.0021  0.4264 -0.2731
 2869DECAN   C528675   5.860   6.901   8.421  0.1740  0.0277 -0.0707
 2869DECAN   C628676   5.947   6.826   8.524 -0.3013 -0.0771  0.2575
 2869DECAN   C728677   5.877   6.742   8.632 -0.2747 -0.0407  0.3042
 2869DECAN   C828678   5.755   6.656   8.594 -0.2143 -0.0107  0.0392
 2869DECAN   C928679   5.795   6.539   8.502 -0.3593 -0.2524  0.2791
 2869DECAN  C1028680   5.682   6.454   8.442 -0.1090 -0.3196 -0.1054
 2870DECAN   C128681   6.292   3.270  14.442  0.2047  0.1288 -0.0554
 2870DECAN   C228682   6.374   3.140  14.451  0.0365  0.0594  0.5209
 2870DECAN   C328683   6.527   3.148  14.445  0.0013  0.2230 -0.2479
 2870DECAN   C428684   6.605   3.017  14.466  0.2644  0.4194  0.0094
 2870DECAN   C528685   6.757   3.042  14.457  0.3405 -0.0280  0.0480
 2870DECAN   C628686   6.834   2.924  14.519 -0.1794 -0.4703 -0.1419
 2870DECAN   C728687   6.961   2.892  14.438 -0.1527 -0.1895 -0.2103
 2870DECAN   C828688   7.034   3.014  14.379 -0.1016 -0.0643  0.1094
 2870DECAN   C928689   7.176   2.978  14.332 -0.2754 -0.1154 -0.3894
 2870DECAN  C1028690   7.264   3.081  14.258 -0.4948  0.5013  0.1952
 2871DECAN   C128691   3.937   6.822  13.695 -0.5105  0.5128  0.0958
 2871DECAN   C228692   4.047   6.896  13.617 -0.4990  0.0451 -0.3318
 2871DECAN   C328693   4.130   6.798  13.532  0.1885  0.4404 -0.1203
 2871DECAN   C428694   4.263   6.745  13.591 -0.0781 -0.1801 -0.0726
 2871DECAN   C528695   4.342   6.666  13.485 -0.6601 -0.4834 -0.2863
 2871DECAN   C628696   4.366   6.755  13.362 -0.8483  0.1054  0.0977
 2871DECAN   C728697   4.440   6.705  13.236 -0.8129 -0.2248  0.2502
 2871DECAN   C828698   4.363   6.591  13.165 -0.0251 -0.0533 -0.8969
 2871DECAN   C928699   4.372   6.460  13.245 -0.0414  0.4161 -0.1138
 2871DECAN  C1028700   4.316   6.338  13.170  0.5580  0.3473 -0.4534
 2872DECAN   C128701   8.314   1.457  13.315  0.1363  0.2933  0.1321
 2872DECAN   C228702   8.318   1.358  13.197  0.1480  0.2860  0.1381
 2872DECAN   C328703   8.188   1.341  13.117  0.2997  0.5025 -0.1551
 2872DECAN   C428704   8.157   1.448  13.010  0.4890  0.0417 -0.6747
 2872DECAN   C528705   8.034   1.433  12.919 -0.3427  0.4875  0.3482
 2872DECAN   C628706   8.037   1.323  12.811 -0.1364  0.5328  0.3075
 2872DECAN   C728707   7.918   1.325  12.714  0.2744 -0.3882 -0.2368
 2872DECAN   C828708   7.783   1.358  12.781  0.4058  0.0972 -0.2123
 2872DECAN   C928709   7.669   1.400  12.687  0.0114 -0.1104  0.1724
 2872DECAN  C1028710   7.539   1.429  12.766 -0.5796 -0.3653 -0.6900
 2873DECAN   C128711   7.536   3.247   5.242  0.4332 -0.3391 -0.4353
 2873DECAN   C228712   7.499   3.396   5.255 -0.4191 -0.5915  0.1360
 2873DECAN   C328713   7.397   3.426   5.367  0.0215 -0.2103  0.4359
 2873DECAN   C428714   7.256   3.366   5.357  0.1174 -0.4267  0.3711
 2873DECAN   C528715   7.166   3.386   5.480  0.0256 -0.3695  0.2964
 2873DECAN   C628716   7.074   3.509   5.486  0.2294 -0.2049  0.0459
 2873DECAN   C728717   6.988   3.537   5.611 -0.2611 -0.2798 -0.2724
 2873DECAN   C828718   6.962   3.688   5.624  0.3505 -0.2103  0.2061
 2873DECAN   C928719   6.873   3.748   5.514  0.4174  0.1137  0.3265
 2873DECAN  C1028720   6.879   3.902   5.509 -0.0205  0.1128 -0.4611
 2874DECAN   C128721   2.037   1.021  13.146 -0.3328 -0.5228  0.8888
 2874DECAN   C228722   1.932   0.954  13.056  0.4711  0.2039 -0.6297
 2874DECAN   C328723   1.988   0.864  12.945  0.4092 -0.3879 -0.1850
 2874DECAN   C428724   1.879   0.784  12.873  0.2264 -0.1570 -0.1654
 2874DECAN   C528725   1.950   0.701  12.764  0.3741 -0.2835  0.0266
 2874DECAN   C628726   2.030   0.581  12.820  0.1802 -0.3925  0.0711
 2874DECAN   C728727   2.085   0.475  12.723 -0.0563 -0.2714 -0.1983
 2874DECAN   C828728   2.147   0.528  12.593  0.3330 -0.2865 -0.0200
 2874DECAN   C928729   2.056   0.582  12.481  0.4825  0.1108  0.0467
 2874DECAN  C1028730   2.135   0.658  12.373  0.0855 -0.0750 -0.3815
 2875DECAN   C128731   4.302   5.646   4.647  0.4864 -0.2502 -0.3013
 2875DECAN   C228732   4.270   5.585   4.509  0.1601 -0.3511 -0.1814
 2875DECAN   C328733   4.363   5.472   4.460 -0.2550 -0.6139 -0.3731
 2875DECAN   C428734   4.354   5.432   4.312  0.1468  0.0290 -0.5760
 2875DECAN   C528735   4.451   5.320   4.272 -0.4850 -0.5682 -0.4533
 2875DECAN   C628736   4.436   5.192   4.356  0.6298 -0.3601  0.0773
 2875DECAN   C728737   4.514   5.080   4.285 -0.2856 -0.3448 -0.9672
 2875DECAN   C828738   4.466   4.954   4.360  0.1066  0.0910  0.0220
 2875DECAN   C928739   4.312   4.950   4.363  0.1118  0.0916  0.3933
 2875DECAN  C1028740   4.240   4.845   4.450 -0.0224  0.1756  0.3832
 2876DECAN   C128741   8.701   1.933  11.321 -0.6587  0.1337 -0.7865
 2876DECAN   C228742   8.855   1.927  11.320 -0.6537 -0.0000  0.2433
 2876DECAN   C328743   8.909   1.863  11.450  0.1912 -0.3667 -0.2836
 2876DECAN   C428744   8.885   1.711  11.458 -0.0414 -0.3013  0.2772
 2876DECAN   C528745   8.962   1.650  11.577  0.6512  0.0863  0.0350
 2876DECAN   C628746   8.912   1.511  11.619 -0.1221  0.3570  0.0255
 2876DECAN   C728747   8.987   1.469  11.746  0.0326  0.3697 -0.0628
 2876DECAN   C828748   8.962   1.320  11.774 -0.2162  0.5573  0.7507
 2876DECAN   C928749   8.822   1.268  11.813 -0.2404 -0.2236 -0.3153
 2876DECAN  C1028750   8.810   1.115  11.823  0.0359 -0.2236  0.0680
 2877DECAN   C128751   3.833   2.985   6.261 -0.0713 -0.2828  0.0195
 2877DECAN   C228752   3.907   3.032   6.388  0.1362 -0.1222 -0.1596
 2877DECAN   C328753   3.811   3.095   6.490  0.0203 -0.3825 -0.1076
 2877DECAN   C428754   3.882   3.102   6.627 -0.3050  0.7841  0.0132
 2877DECAN   C528755   3.782   3.128   6.740 -0.3973 -0.1661  0.1584
 2877DECAN   C628756   3.858   3.152   6.872  0.1865  0.4284 -0.2800
 2877DECAN   C728757   3.769   3.182   6.994  0.6708  0.5366  0.0487
 2877DECAN   C828758   3.818   3.138   7.134 -0.6056  0.2126  0.4128
 2877DECAN   C928759   3.726   3.138   7.257 -0.4101 -0.7285  0.5645
 2877DECAN  C1028760   3.793   3.069   7.378 -0.3512 -0.1350  0.8762
 2878DECAN   C128761   4.829   3.852  13.532 -0.0497 -0.2224 -0.1139
 2878DECAN   C228762   4.911   3.723  13.515  0.2069 -0.0753  0.0117
 2878DECAN   C328763   4.889   3.668  13.373  0.2324 -0.8294  0.2952
 2878DECAN   C428764   4.947   3.529  13.341  0.1574 -0.8363  0.1884
 2878DECAN   C528765   4.872   3.402  13.386  0.1339 -0.7902  0.2779
 2878DECAN   C628766   4.834   3.428  13.533 -0.0286  0.4319  0.0372
 2878DECAN   C728767   4.752   3.319  13.604  0.2253  0.1817 -0.0498
 2878DECAN   C828768   4.742   3.334  13.757  0.0799  0.0342 -0.0450
 2878DECAN   C928769   4.632   3.248  13.823 -0.4634  0.6071 -0.1931
 2878DECAN  C1028770   4.635   3.255  13.976 -0.5184  0.0598 -0.1634
 2879DECAN   C128771   5.487   0.564   6.702  0.1941 -0.0961 -0.0931
 2879DECAN   C228772   5.542   0.435   6.639 -0.0178 -0.3466  0.2300
 2879DECAN   C328773   5.692   0.406   6.653  0.1613  0.3264 -0.2307
 2879DECAN   C428774   5.746   0.289   6.568 -0.4053 -0.0909 -0.0200
 2879DECAN   C528775   5.900   0.284   6.566 -0.3934  0.2254  0.0320
 2879DECAN   C628776   5.961   0.404   6.491 -0.5975 -0.1176 -0.6875
 2879DECAN   C728777   6.114   0.387   6.488 -0.5638 -0.1375  0.7562
 2879DECAN   C828778   6.172   0.246   6.471 -0.2687  0.1159 -0.4105
 2879DECAN   C928779   6.317   0.240   6.420 -0.0718  0.2224  0.1298
 2879DECAN  C1028780   6.415   0.287   6.529  0.3490 -0.1079 -0.1013
 2880DECAN   C128781   5.508   5.561   9.284  0.1873  0.4668  0.1987
 2880DECAN   C228782   5.372   5.517   9.342  0.3970 -0.0914  0.2748
 2880DECAN   C328783   5.346   5.609   9.462 -0.2834  0.2812 -0.1501
 2880DECAN   C428784   5.449   5.629   9.575 -0.4791  0.2989  0.0257
 2880DECAN   C528785   5.444   5.515   9.678 -0.1419 -0.0818 -0.3781
 2880DECAN   C628786   5.570   5.518   9.767 -0.4384  0.1838  0.0400
 2880DECAN   C728787   5.692   5.564   9.684 -0.3816 -0.1747 -0.0794
 2880DECAN   C828788   5.721   5.469   9.567 -0.0931 -0.5973  0.3293
 2880DECAN   C928789   5.838   5.508   9.475 -0.0100 -0.5298  0.4633
 2880DECAN  C1028790   5.843   5.415   9.352  0.1472  0.3698 -0.2232
 2881DECAN   C128791   2.511   7.853  15.044 -0.2186 -0.1924  0.2439
 2881DECAN   C228792   2.521   7.792  14.903  0.4167 -0.1708  0.2774
 2881DECAN   C328793   2.640   7.695  14.885  0.1287 -0.4137 -0.3498
 2881DECAN   C428794   2.644   7.632  14.745 -0.1965  0.2383 -0.6582
 2881DECAN   C528795   2.525   7.534  14.733 -0.1158  0.0712 -0.1383
 2881DECAN   C628796   2.526   7.437  14.614 -0.5246  0.2751 -0.3114
 2881DECAN   C728797   2.396   7.368  14.566 -0.4050 -0.3761  0.2809
 2881DECAN   C828798   2.406   7.285  14.437 -0.4918 -0.3344  0.2474
 2881DECAN   C928799   2.266   7.222  14.422 -0.5627 -0.0714 -0.2305
 2881DECAN  C1028800   2.164   7.304  14.340 -0.6167 -0.6584 -0.7538
 2882DECAN   C128801   5.960  10.145  10.544 -0.0695 -0.2497 -0.7995
 2882DECAN   C228802   6.084  10.121  10.632 -0.3700 -0.2493 -0.3727
 2882DECAN   C328803   6.216  10.122  10.554 -0.2944 -0.3325 -0.2475
 2882DECAN   C428804   6.249  10.240  10.460 -0.1491 -0.2297 -0.0687
 2882DECAN   C528805   6.392  10.240  10.402 -0.1056 -0.2890  0.0375
 2882DECAN   C628806   6.413  10.353  10.299  0.7961 -0.0366  0.4871
 2882DECAN   C728807   6.375  10.492  10.353  0.0851  0.0725 -0.2682
 2882DECAN   C828808   6.458  10.537  10.475  0.2569 -0.0765 -0.3302
 2882DECAN   C928809   6.598  10.580  10.428  0.5549 -0.3887  0.2555
 2882DECAN  C1028810   6.676  10.651  10.541  0.2655  0.4401 -0.0548
 2883DECAN   C128811   6.760   4.630  15.159  0.4391 -0.2340  0.4485
 2883DECAN   C228812   6.856   4.709  15.068  0.1163  0.0786  0.3785
 2883DECAN   C328813   6.983   4.627  15.042  0.1610  0.1518  0.3666
 2883DECAN   C428814   7.098   4.700  14.970  0.0660 -0.0346  0.0243
 2883DECAN   C528815   7.060   4.739  14.825  0.1057 -0.6108 -0.1439
 2883DECAN   C628816   7.166   4.834  14.765 -0.2080 -0.3427 -0.2760
 2883DECAN   C728817   7.139   4.880  14.620 -0.2519 -0.0505 -0.1759
 2883DECAN   C828818   7.021   4.977  14.609 -0.1417  0.0909 -0.1090
 2883DECAN   C928819   6.994   5.030  14.467  0.4083  0.7626  0.0309
 2883DECAN  C1028820   6.872   5.120  14.444  0.1124  0.3542 -0.0060
 2884DECAN   C128821   2.825   8.435  10.735 -0.0391  0.0836 -0.1728
 2884DECAN   C228822   2.862   8.526  10.854 -0.1580 -0.3244  0.1794
 2884DECAN   C328823   2.734   8.601  10.893 -0.0255  0.1797 -0.3351
 2884DECAN   C428824   2.730   8.705  11.007  0.5240  0.0152 -0.1624
 2884DECAN   C528825   2.604   8.792  11.028  0.7542  0.4496 -0.5487
 2884DECAN   C628826   2.603   8.897  11.141  0.1823 -0.1687  0.0335
 2884DECAN   C728827   2.704   8.861  11.251  0.3988 -0.3889 -0.2360
 2884DECAN   C828828   2.694   8.732  11.335  0.1346  0.1012  0.5015
 2884DECAN   C928829   2.824   8.687  11.404  0.3081  0.3374  0.3280
 2884DECAN  C1028830   2.883   8.777  11.515  0.0792  0.3974  0.4006
 2885DECAN   C128831   9.346   2.222  11.903 -0.4477 -0.0757 -0.7106
 2885DECAN   C228832   9.225   2.316  11.899 -0.3318  0.0991 -0.1811
 2885DECAN   C328833   9.198   2.403  12.024 -0.2927  0.0042 -0.1073
 2885DECAN   C428834   9.151   2.321  12.146 -0.0240 -0.0646 -0.0487
 2885DECAN   C528835   9.240   2.201  12.184  0.1977  0.1284  0.0438
 2885DECAN   C628836   9.204   2.145  12.323  0.1255  0.4420  0.1525
 2885DECAN   C728837   9.285   2.021  12.363 -0.3575  0.1374  0.1968
 2885DECAN   C828838   9.242   1.957  12.496 -0.3409  0.1980  0.2307
 2885DECAN   C928839   9.334   1.834  12.510 -0.1566  0.2521 -0.4548
 2885DECAN  C1028840   9.290   1.757  12.636  0.6897 -0.4900 -0.6024
 2886DECAN   C128841   7.726   9.564  12.726  0.1389 -0.3571 -0.7635
 2886DECAN   C228842   7.613   9.460  12.740  0.1103 -0.2368 -0.0756
 2886DECAN   C328843   7.491   9.512  12.818  0.2756  0.3043 -0.1762
 2886DECAN   C428844   7.403   9.607  12.735 -0.2834 -0.1444 -0.0995
 2886DECAN   C528845   7.329   9.544  12.615 -0.2167  0.5360 -0.5050
 2886DECAN   C628846   7.423   9.476  12.513 -0.2148 -0.0508 -0.1188
 2886DECAN   C728847   7.355   9.433  12.381 -0.0724 -0.0608 -0.1892
 2886DECAN   C828848   7.464   9.391  12.281  0.1963  0.2438 -0.0280
 2886DECAN   C928849   7.573   9.293  12.327 -0.0215 -0.1817 -0.4070
 2886DECAN  C1028850   7.673   9.252  12.218  0.3698 -0.4562  0.0482
 2887DECAN   C128851   9.127   7.648   8.449  0.1588  0.3059  0.2406
 2887DECAN   C228852   9.218   7.704   8.338  0.2646  0.0782  0.2112
 2887DECAN   C328853   9.167   7.835   8.274  0.0426 -0.0365  0.1531
 2887DECAN   C428854   9.207   7.872   8.131  0.3191 -0.4582  0.1182
 2887DECAN   C528855   9.146   7.773   8.029 -0.2414  0.1027 -0.0987
 2887DECAN   C628856   9.194   7.781   7.883  0.1419 -0.2732  0.0052
 2887DECAN   C728857   9.171   7.648   7.809  0.3206 -0.1795 -0.2174
 2887DECAN   C828858   9.238   7.522   7.868  0.2272  0.0268  0.3275
 2887DECAN   C928859   9.245   7.412   7.761 -0.6338 -0.0480  0.3414
 2887DECAN  C1028860   9.305   7.278   7.809  0.2016  0.4343  0.6508
 2888DECAN   C128861   8.172   2.361   4.311 -0.9199 -0.1027  0.6123
 2888DECAN   C228862   8.288   2.260   4.325 -0.0636  0.8782  0.6987
 2888DECAN   C328863   8.268   2.167   4.446 -0.5146  0.5101  0.3460
 2888DECAN   C428864   8.380   2.066   4.479  0.0630  0.9534 -0.2389
 2888DECAN   C528865   8.516   2.124   4.520  0.2785  0.3777 -0.1290
 2888DECAN   C628866   8.588   2.012   4.598  0.3403  0.1551 -0.5024
 2888DECAN   C728867   8.620   1.889   4.511  0.4895  0.1688 -0.4672
 2888DECAN   C828868   8.677   1.769   4.588 -0.4425 -0.0774 -0.1447
 2888DECAN   C928869   8.746   1.653   4.514 -0.0516 -0.2452  0.4751
 2888DECAN  C1028870   8.823   1.552   4.601  0.2339  0.1132  0.6426
 2889DECAN   C128871   8.516   3.781  13.978  0.3811 -0.4121  0.5238
 2889DECAN   C228872   8.639   3.700  13.931  0.2055 -0.1960 -0.3236
 2889DECAN   C328873   8.610   3.556  13.979 -0.4564  0.0892  0.1565
 2889DECAN   C428874   8.716   3.455  13.931 -0.5139  0.2810 -0.3832
 2889DECAN   C528875   8.713   3.434  13.778  0.2621 -0.3441 -0.3191
 2889DECAN   C628876   8.702   3.557  13.686 -0.4134 -0.3920 -0.3033
 2889DECAN   C728877   8.711   3.521  13.537 -0.2813  0.1287 -0.4215
 2889DECAN   C828878   8.832   3.432  13.504 -0.2632  0.1599 -0.4392
 2889DECAN   C928879   8.829   3.294  13.572  0.2356  0.5081  0.2960
 2889DECAN  C1028880   8.948   3.208  13.524 -0.5567 -0.3353 -0.1770
 2890DECAN   C128881  10.002  11.013   6.056  0.1277  0.6165 -0.4689
 2890DECAN   C228882   9.908  10.904   6.000  0.4001  0.4922 -0.6896
 2890DECAN   C328883  10.000  10.782   5.988  0.5399  0.5346 -0.0940
 2890DECAN   C428884   9.920  10.660   5.939  0.3876  0.3059  0.7208
 2890DECAN   C528885  10.016  10.539   5.930 -0.0568 -0.0181  0.2936
 2890DECAN   C628886   9.950  10.411   5.876  0.0950  0.0545 -0.0650
 2890DECAN   C728887  10.058  10.306   5.845 -0.0304  0.0363 -0.4497
 2890DECAN   C828888   9.994  10.171   5.808  0.2997 -0.2809  0.1397
 2890DECAN   C928889   9.920  10.165   5.674 -0.2190  0.0238  0.4104
 2890DECAN  C1028890   9.854  10.029   5.645  0.6242 -0.3544  0.2284
 2891DECAN   C128891   9.445   8.839  11.669 -0.4929 -0.0078  0.4704
 2891DECAN   C228892   9.415   8.702  11.605  0.2109 -0.0778  0.2892
 2891DECAN   C328893   9.544   8.624  11.574  0.2949  0.2377 -0.1693
 2891DECAN   C428894   9.627   8.575  11.694 -0.1454 -0.4542 -0.1387
 2891DECAN   C528895   9.730   8.464  11.667  0.3924  0.1683 -0.6912
 2891DECAN   C628896   9.825   8.463  11.789 -0.3200 -0.8426 -0.1224
 2891DECAN   C728897   9.931   8.352  11.792 -0.0909 -0.6057  0.5973
 2891DECAN   C828898  10.052   8.388  11.704 -0.5809 -0.4723 -0.0249
 2891DECAN   C928899  10.152   8.271  11.698  0.1068  0.0914  0.2611
 2891DECAN  C1028900  10.195   8.242  11.843 -0.1211  0.6709  0.4468
 2892DECAN   C128901   3.410   0.781  12.600 -0.2979 -0.3070  0.2972
 2892DECAN   C228902   3.377   0.882  12.712  0.2955 -0.1399  0.3247
 2892DECAN   C328903   3.295   0.821  12.826 -0.5098 -0.0584 -0.2044
 2892DECAN   C428904   3.264   0.930  12.931  0.2481  0.3383 -0.3925
 2892DECAN   C528905   3.178   1.041  12.868 -0.4373  0.2190  0.3176
 2892DECAN   C628906   3.137   1.149  12.970  0.3718  0.4106  0.4535
 2892DECAN   C728907   3.070   1.282  12.931  0.3254  0.1570 -0.3485
 2892DECAN   C828908   3.008   1.360  13.048  0.4156 -0.3855  0.0679
 2892DECAN   C928909   2.913   1.478  13.019  0.5460 -0.2427  0.2178
 2892DECAN  C1028910   2.977   1.587  12.931  0.0056 -0.0463  0.0631
 2893DECAN   C128911  10.150   1.071  10.968  0.0108  0.1925  0.8802
 2893DECAN   C228912  10.030   1.149  10.914  0.3388 -0.3430 -0.6741
 2893DECAN   C328913   9.905   1.062  10.891  0.0452 -0.1260  0.0502
 2893DECAN   C428914   9.918   0.974  10.765 -0.0738 -0.0578 -0.0092
 2893DECAN   C528915   9.905   1.036  10.625 -0.1413 -0.0166  0.0149
 2893DECAN   C628916   9.908   0.933  10.510 -0.1516  0.1109 -0.0998
 2893DECAN   C728917   9.998   0.809  10.524 -0.3215 -0.0514 -0.4284
 2893DECAN   C828918  10.144   0.839  10.486 -0.2325  0.1088  0.0195
 2893DECAN   C928919  10.234   0.721  10.529 -0.2599 -0.1015 -0.4841
 2893DECAN  C1028920  10.187   0.596  10.453 -0.3932 -0.3077 -0.0675
 2894DECAN   C128921   6.765   1.464   5.049  0.0595 -0.4548  0.0769
 2894DECAN   C228922   6.762   1.316   5.094 -0.5817 -0.5467 -0.2585
 2894DECAN   C328923   6.690   1.218   5.000 -0.8140 -0.3351 -0.3041
 2894DECAN   C428924   6.668   1.071   5.040  0.3296 -0.6001 -0.6231
 2894DECAN   C528925   6.559   1.055   5.147  0.5427 -0.3218 -0.3637
 2894DECAN   C628926   6.521   0.907   5.167 -0.2012 -0.0521  0.2870
 2894DECAN   C728927   6.399   0.888   5.258  0.0201 -0.9344  0.4072
 2894DECAN   C828928   6.428   0.958   5.392  0.1415  0.4037 -0.3035
 2894DECAN   C928929   6.293   0.980   5.463  0.3162 -0.1777  0.2217
 2894DECAN  C1028930   6.298   1.062   5.593 -0.2681  0.0200  0.1249
 2895DECAN   C128931   2.773   5.444  10.635  0.0080  0.4378  0.3543
 2895DECAN   C228932   2.749   5.302  10.690  0.3536  0.3967  0.3976
 2895DECAN   C328933   2.607   5.282  10.745  0.1020 -0.3774 -0.5161
 2895DECAN   C428934   2.575   5.134  10.775  0.0011 -0.1885  0.3269
 2895DECAN   C528935   2.539   5.055  10.648  0.2383 -0.0859  0.1962
 2895DECAN   C628936   2.549   4.902  10.649 -0.2386 -0.1217  0.0027
 2895DECAN   C728937   2.497   4.819  10.530  0.2147  0.0573 -0.3244
 2895DECAN   C828938   2.519   4.667  10.541 -0.9444 -0.0838  0.2600
 2895DECAN   C928939   2.445   4.616  10.665 -0.9369  0.2021  0.3842
 2895DECAN  C1028940   2.465   4.467  10.698  0.3963  0.2766 -0.0538
 2896DECAN   C128941   3.726   4.604  10.599  0.3488 -0.5966  0.1353
 2896DECAN   C228942   3.851   4.515  10.583  0.3891 -0.5977  0.4434
 2896DECAN   C328943   3.974   4.580  10.518 -0.0692 -0.0664  0.0975
 2896DECAN   C428944   4.087   4.485  10.474 -0.1159 -0.2999  0.4808
 2896DECAN   C528945   4.187   4.567  10.390 -0.7221  0.1494  0.1939
 2896DECAN   C628946   4.306   4.486  10.337 -0.9321  0.1781 -0.3282
 2896DECAN   C728947   4.395   4.568  10.241 -0.6805 -0.3386 -0.5387
 2896DECAN   C828948   4.326   4.650  10.130 -0.2969 -0.1210 -0.6190
 2896DECAN   C928949   4.278   4.581  10.001 -0.2518 -0.2821 -0.5503
 2896DECAN  C1028950   4.225   4.673   9.889  0.4892  0.1765 -0.5312
 2897DECAN   C128951   7.501   5.385   9.357  0.2883 -0.3282  0.3961
 2897DECAN   C228952   7.547   5.458   9.484 -0.4488 -0.3905  0.7028
 2897DECAN   C328953   7.513   5.609   9.487  0.2764 -0.2146  0.3275
 2897DECAN   C428954   7.572   5.671   9.359 -0.3865 -0.5558 -0.1508
 2897DECAN   C528955   7.720   5.635   9.335 -0.1094  0.5662 -0.1833
 2897DECAN   C628956   7.819   5.676   9.445  0.2447  0.4575 -0.4604
 2897DECAN   C728957   7.944   5.590   9.471 -0.3618 -0.2929  0.0138
 2897DECAN   C828958   8.046   5.637   9.576  0.4297 -0.4760 -0.6637
 2897DECAN   C928959   7.993   5.604   9.717 -0.0611 -0.7037 -0.9016
 2897DECAN  C1028960   7.853   5.664   9.743  0.1751 -0.3618 -0.4218
 2898DECAN   C128961   6.644   1.598   4.724 -0.1275  0.0632 -0.7067
 2898DECAN   C228962   6.517   1.669   4.777 -0.1321  0.3809 -1.1303
 2898DECAN   C328963   6.386   1.594   4.746  0.1184 -0.6334  0.1573
 2898DECAN   C428964   6.273   1.684   4.797 -0.1078 -0.3469 -0.8384
 2898DECAN   C528965   6.317   1.832   4.804  0.3010 -0.5007 -0.1311
 2898DECAN   C628966   6.345   1.899   4.668 -0.0274 -0.3026 -0.1034
 2898DECAN   C728967   6.243   1.875   4.556 -0.0612  0.1203 -0.1629
 2898DECAN   C828968   6.281   1.942   4.422 -0.0379 -0.2347 -0.3360
 2898DECAN   C928969   6.187   1.909   4.305  0.0776 -0.5754 -0.3324
 2898DECAN  C1028970   6.052   1.983   4.302  0.5051  0.2158 -0.2367
 2899DECAN   C128971   2.465   1.416  10.054 -0.0766 -0.1086 -0.0485
 2899DECAN   C228972   2.325   1.396  10.116 -0.2135  0.7545 -0.0780
 2899DECAN   C328973   2.291   1.475  10.244 -0.0212  0.8347 -0.0763
 2899DECAN   C428974   2.146   1.449  10.287  0.0290  0.0364 -0.3692
 2899DECAN   C528975   2.106   1.493  10.429 -0.1178  0.1374 -0.4402
 2899DECAN   C628976   2.101   1.646  10.431  0.2087  0.1465 -0.1533
 2899DECAN   C728977   2.230   1.731  10.425  0.1340  0.3084  0.4902
 2899DECAN   C828978   2.204   1.873  10.373  0.2168  0.0742 -0.1970
 2899DECAN   C928979   2.323   1.965  10.403 -0.3642  0.4344  1.0878
 2899DECAN  C1028980   2.288   2.108  10.357  0.1107  0.1796 -0.1219
 2900DECAN   C128981   7.448   3.312   7.933 -0.0683 -0.1505 -0.2210
 2900DECAN   C228982   7.561   3.279   8.033 -0.1896 -0.3003 -0.1318
 2900DECAN   C328983   7.543   3.367   8.158  0.2068 -0.2750 -0.0930
 2900DECAN   C428984   7.665   3.363   8.253  0.2275  0.5130 -0.0789
 2900DECAN   C528985   7.666   3.431   8.390 -0.2066  0.2814  0.0396
 2900DECAN   C628986   7.646   3.583   8.372  0.1968  0.3048 -0.2091
 2900DECAN   C728987   7.757   3.622   8.272  0.2393 -0.0252 -0.2914
 2900DECAN   C828988   7.791   3.771   8.260  0.1213  0.0313  0.0691
 2900DECAN   C928989   7.670   3.832   8.186  0.2430  0.4004  0.1694
 2900DECAN  C1028990   7.616   3.765   8.059  0.5968  0.8780 -0.2389
 2901DECAN   C128991   4.627   2.935  10.514 -0.1832  0.3160 -0.4220
 2901DECAN   C228992   4.514   3.034  10.546 -0.4986 -0.2551  0.2614
 2901DECAN   C328993   4.562   3.175  10.584  0.4556 -0.2811 -0.7831
 2901DECAN   C428994   4.672   3.240  10.498  0.4602  0.4968 -0.2010
 2901DECAN   C528995   4.643   3.268  10.350 -0.3479  0.4569 -0.0555
 2901DECAN   C628996   4.777   3.286  10.275 -0.2295  0.0575  0.0584
 2901DECAN   C728997   4.895   3.191  10.303  0.3740  0.6246 -0.5390
 2901DECAN   C828998   4.890   3.049  10.243  0.6750  0.3063  0.1744
 2901DECAN   C928999   5.017   2.962  10.244  0.2840 -0.2704  0.1171
 2901DECAN  C1029000   5.010   2.830  10.165 -0.4050 -0.0733 -0.1625
 2902DECAN   C129001   7.279   3.775  11.107  1.0523  1.3710  0.7120
 2902DECAN   C229002   7.235   3.850  10.980  0.1042 -0.0117  0.1941
 2902DECAN   C329003   7.131   3.769  10.902  0.0544 -0.1543  0.4064
 2902DECAN   C429004   6.988   3.790  10.955 -0.1073  0.6308 -0.3220
 2902DECAN   C529005   6.882   3.709  10.878  0.2243  0.0265 -0.1507
 2902DECAN   C629006   6.831   3.775  10.748 -0.6850  0.5855  0.4680
 2902DECAN   C729007   6.704   3.717  10.683 -0.1123 -0.1362 -0.0383
 2902DECAN   C829008   6.679   3.744  10.533 -0.0678 -0.2255 -0.0624
 2902DECAN   C929009   6.561   3.670  10.468 -0.0893 -0.4321  0.2077
 2902DECAN  C1029010   6.442   3.715  10.556  0.3322  0.2837  0.4182
 2903DECAN   C129011  10.142   1.023   9.114  0.0065 -0.0332  0.0334
 2903DECAN   C229012  10.094   0.901   9.195 -0.2358  0.4639  0.6380
 2903DECAN   C329013  10.199   0.789   9.204 -0.1027  0.4927 -0.5040
 2903DECAN   C429014  10.343   0.835   9.233 -0.3432  0.7396  0.3146
 2903DECAN   C529015  10.422   0.896   9.116 -1.1380 -0.0522 -0.6503
 2903DECAN   C629016  10.437   0.786   9.009  0.6529 -0.0601 -0.4236
 2903DECAN   C729017  10.304   0.720   8.968  0.3099  0.5365 -0.2981
 2903DECAN   C829018  10.324   0.622   8.850  0.3196  0.0403  0.1137
 2903DECAN   C929019  10.423   0.509   8.887  0.2508  0.0560  0.3483
 2903DECAN  C1029020  10.432   0.396   8.782 -0.1201  0.4007 -0.0599
 2904DECAN   C129021   2.792   7.048   5.363 -0.1537 -0.6633  0.7330
 2904DECAN   C229022   2.736   6.925   5.288 -0.0682 -0.3600  0.1633
 2904DECAN   C329023   2.582   6.919   5.290 -0.0485 -0.8134  0.5702
 2904DECAN   C429024   2.522   6.818   5.191  0.0951 -0.5640  0.2249
 2904DECAN   C529025   2.397   6.736   5.231 -0.0701 -0.4115  0.0263
 2904DECAN   C629026   2.339   6.644   5.123 -0.0865 -0.4373  0.0569
 2904DECAN   C729027   2.227   6.553   5.175 -0.1194 -0.0515  0.6699
 2904DECAN   C829028   2.094   6.623   5.209 -0.2950 -0.1790  0.2498
 2904DECAN   C929029   1.979   6.527   5.245 -0.1332 -0.5695 -0.2648
 2904DECAN  C1029030   1.844   6.599   5.265 -0.1034 -0.7150  0.4836
 2905DECAN   C129031  11.042   6.188   8.392  0.3662  0.1927 -0.7847
 2905DECAN   C229032  10.940   6.162   8.505  0.1475  0.4248 -0.9292
 2905DECAN   C329033  10.867   6.286   8.561 -0.2339 -0.2690  0.1159
 2905DECAN   C429034  10.741   6.320   8.480  0.3085  0.4619 -0.4215
 2905DECAN   C529035  10.671   6.449   8.528  0.2634  0.3848 -0.2813
 2905DECAN   C629036  10.540   6.484   8.456 -0.2847 -0.1153  0.4516
 2905DECAN   C729037  10.497   6.630   8.483 -0.0694  0.0306  0.0192
 2905DECAN   C829038  10.486   6.660   8.634  0.0906 -0.0066  0.0382
 2905DECAN   C929039  10.410   6.791   8.662  0.4536  0.1710  0.1999
 2905DECAN  C1029040  10.408   6.827   8.812 -0.3619  0.4115  0.1383
 2906DECAN   C129041   4.838   5.330   7.943 -0.0012  0.1990  0.6932
 2906DECAN   C229042   4.963   5.288   8.023  0.1363 -0.5967  0.0730
 2906DECAN   C329043   5.091   5.370   7.998 -0.2480 -0.0794 -0.2147
 2906DECAN   C429044   5.218   5.322   8.070 -0.4327 -0.3264 -0.0500
 2906DECAN   C529045   5.224   5.304   8.223  0.4045 -0.2153 -0.0657
 2906DECAN   C629046   5.365   5.286   8.284  0.4195  0.1137  0.0015
 2906DECAN   C729047   5.355   5.237   8.429 -0.4199 -0.5130 -0.2517
 2906DECAN   C829048   5.487   5.198   8.499 -0.4217 -0.0584  0.0165
 2906DECAN   C929049   5.577   5.106   8.413 -0.1422  0.1551  0.0817
 2906DECAN  C1029050   5.702   5.064   8.494  0.2055 -0.7517 -0.9082
 2907DECAN   C129051   5.749   7.311   8.265 -0.5108  0.4542  0.0388
 2907DECAN   C229052   5.616   7.283   8.338 -0.1018  0.2175  0.6987
 2907DECAN   C329053   5.530   7.409   8.361 -0.2467  0.1042  0.7746
 2907DECAN   C429054   5.618   7.495   8.453  0.5672  0.2733 -0.1451
 2907DECAN   C529055   5.550   7.632   8.470  0.0721  0.0140 -0.0063
 2907DECAN   C629056   5.635   7.709   8.573  0.6202 -0.1520 -0.3267
 2907DECAN   C729057   5.633   7.862   8.557  0.5268 -0.1292 -0.1059
 2907DECAN   C829058   5.742   7.934   8.638 -0.3372  0.4519  0.5624
 2907DECAN   C929059   5.775   8.074   8.582  0.8200 -0.0747 -0.1256
 2907DECAN  C1029060   5.857   8.154   8.685 -0.1591 -0.0468  0.6505
 2908DECAN   C129061   2.286   4.057   9.850 -0.0403 -0.0393  0.2393
 2908DECAN   C229062   2.230   4.011   9.986  0.2227 -0.1588  0.3077
 2908DECAN   C329063   2.203   3.859   9.992  0.4581 -0.2081  0.1542
 2908DECAN   C429064   2.163   3.817  10.135 -0.5682  0.3127  0.0318
 2908DECAN   C529065   2.188   3.668  10.163 -0.4825  0.2749 -0.2471
 2908DECAN   C629066   2.074   3.581  10.104 -0.4678 -0.2350  0.4704
 2908DECAN   C729067   2.086   3.581   9.951 -0.3112 -0.3716  0.4819
 2908DECAN   C829068   1.973   3.512   9.871 -0.0713  0.2069 -0.3671
 2908DECAN   C929069   1.981   3.495   9.718 -0.2084 -0.1965 -0.3297
 2908DECAN  C1029070   2.106   3.407   9.698  0.0651  0.2211 -0.4645
 2909DECAN   C129071   7.793   9.565   7.064  0.8384 -0.3211 -0.1223
 2909DECAN   C229072   7.821   9.703   7.127  0.1131 -0.3631  0.3086
 2909DECAN   C329073   7.826   9.803   7.009 -0.0792 -0.1973  0.4406
 2909DECAN   C429074   7.914   9.927   7.031 -0.2705 -0.0315  0.2632
 2909DECAN   C529075   7.900  10.037   6.924 -0.1112 -0.4405 -0.1821
 2909DECAN   C629076   7.929  10.000   6.777 -0.0296 -0.2846 -0.2048
 2909DECAN   C729077   7.915  10.123   6.685 -0.6083 -0.6598 -0.6281
 2909DECAN   C829078   7.941  10.072   6.543  0.1344 -0.1225 -0.6899
 2909DECAN   C929079   7.840   9.974   6.479 -0.5152 -0.4053  0.7465
 2909DECAN  C1029080   7.856   9.936   6.331 -0.1714 -0.3027  0.7557
 2910DECAN   C129081  10.925   7.354  11.707 -0.0017  0.3310  0.4513
 2910DECAN   C229082  10.915   7.478  11.798 -0.2520  0.2445  0.5406
 2910DECAN   C329083  10.914   7.612  11.723 -0.0007 -0.4163 -0.6762
 2910DECAN   C429084  10.989   7.713  11.813  0.2202 -0.8908 -0.3200
 2910DECAN   C529085  10.999   7.857  11.759  0.7351 -0.6649  0.3711
 2910DECAN   C629086  11.065   7.954  11.859 -0.4942  0.5465  0.0387
 2910DECAN   C729087  11.025   7.959  12.007 -0.0673  0.1103  0.1692
 2910DECAN   C829088  11.071   8.088  12.077  0.1648  0.0162  0.1928
 2910DECAN   C929089  11.048   8.092  12.229 -0.1969  0.0441  0.1383
 2910DECAN  C1029090  11.110   7.979  12.314  0.5634  0.1242 -0.3059
 2911DECAN   C129091   6.906   4.637  10.731 -0.0567 -0.5194  0.4634
 2911DECAN   C229092   6.753   4.621  10.725 -0.1802  0.5482  0.5542
 2911DECAN   C329093   6.678   4.755  10.734 -0.3978  0.4778 -0.1241
 2911DECAN   C429094   6.716   4.842  10.856  0.5088  0.3617 -0.3145
 2911DECAN   C529095   6.719   4.764  10.988  0.0991  0.5549 -0.1881
 2911DECAN   C629096   6.588   4.684  11.001  0.2611  0.1978 -0.7083
 2911DECAN   C729097   6.465   4.776  10.989  0.1781  0.2235  0.2547
 2911DECAN   C829098   6.324   4.714  10.988  0.1452  0.2960  0.3428
 2911DECAN   C929099   6.219   4.786  10.902 -0.2169  0.0860  0.6064
 2911DECAN  C1029100   6.218   4.937  10.930 -0.4053  0.2441 -0.2056
 2912DECAN   C129101   9.452   1.496  10.301  0.0491  0.2938 -0.6783
 2912DECAN   C229102   9.600   1.538  10.302  0.1862 -0.1798  0.1133
 2912DECAN   C329103   9.680   1.436  10.384  0.0551  0.0758  0.5654
 2912DECAN   C429104   9.833   1.444  10.363  0.0067  0.0031  0.1759
 2912DECAN   C529105   9.919   1.335  10.429 -0.0898 -0.3249 -0.2377
 2912DECAN   C629106  10.070   1.364  10.431 -0.1670  0.1172 -0.6855
 2912DECAN   C729107  10.162   1.280  10.521 -0.1730  0.4305 -0.3853
 2912DECAN   C829108  10.306   1.334  10.511 -0.0228  0.0162 -0.4754
 2912DECAN   C929109  10.405   1.234  10.575 -0.2932  0.5484  0.7943
 2912DECAN  C1029110  10.551   1.281  10.586  0.0575 -0.2082 -0.5079
 2913DECAN   C129111   6.937   2.890   8.036 -0.4523  0.3412 -0.4251
 2913DECAN   C229112   6.882   2.800   7.923 -0.3613  0.1294 -0.3007
 2913DECAN   C329113   6.747   2.852   7.870 -0.5399  0.1957  0.2106
 2913DECAN   C429114   6.708   2.777   7.741 -0.0237  0.1350  0.0866
 2913DECAN   C529115   6.574   2.828   7.685 -0.1975 -0.5017 -0.0913
 2913DECAN   C629116   6.550   2.810   7.534 -0.1296 -0.3841 -0.1164
 2913DECAN   C729117   6.517   2.663   7.501 -0.7330 -0.1173 -0.7276
 2913DECAN   C829118   6.624   2.561   7.546 -0.4763  0.2275 -0.5502
 2913DECAN   C929119   6.591   2.425   7.483  0.1586 -0.1167 -0.1474
 2913DECAN  C1029120   6.671   2.308   7.544 -0.1037 -0.3536 -0.2537
 2914DECAN   C129121   5.128  11.013   5.650 -0.3796 -0.6086  0.3877
 2914DECAN   C229122   5.077  11.038   5.793  0.1741 -0.0091  0.4858
 2914DECAN   C329123   4.942  10.970   5.822  0.1038  0.0375  0.2748
 2914DECAN   C429124   4.964  10.871   5.938  0.2128 -0.3304 -0.0584
 2914DECAN   C529125   4.832  10.819   5.997  0.0597 -0.3699 -0.4302
 2914DECAN   C629126   4.729  10.932   6.014  0.2829 -0.2060 -0.1682
 2914DECAN   C729127   4.663  10.970   5.881 -0.3308 -0.3098  0.1032
 2914DECAN   C829128   4.560  11.085   5.896 -0.2544 -0.2888  0.4516
 2914DECAN   C929129   4.494  11.112   5.760  0.2290  0.2375  0.3149
 2914DECAN  C1029130   4.397  11.228   5.788 -0.3337 -0.1902  0.1805
 2915DECAN   C129131   1.166   8.525  11.424  0.0534  0.0767  0.0103
 2915DECAN   C229132   1.081   8.618  11.336 -0.3620 -0.5174 -0.2206
 2915DECAN   C329133   1.158   8.671  11.213 -0.1050  0.2587  0.2674
 2915DECAN   C429134   1.067   8.737  11.107  0.0554 -0.3924 -0.2829
 2915DECAN   C529135   0.994   8.851  11.180  0.1685 -0.1618 -0.5315
 2915DECAN   C629136   0.902   8.933  11.087 -0.0029  0.8498  0.5071
 2915DECAN   C729137   0.971   9.029  10.989 -0.0952 -0.0841 -0.4925
 2915DECAN   C829138   0.871   9.105  10.900 -0.2889  0.4884  0.2046
 2915DECAN   C929139   0.938   9.207  10.805  0.0915 -0.2344 -0.3107
 2915DECAN  C1029140   0.845   9.246  10.688 -0.0102 -0.4567 -0.3042
 2916DECAN   C129141   5.034   7.402  10.072 -0.0932 -0.5421 -0.1839
 2916DECAN   C229142   4.881   7.420  10.083 -0.0212  0.0321 -0.0722
 2916DECAN   C329143   4.780   7.320  10.022 -0.0575  0.1943 -0.2799
 2916DECAN   C429144   4.639   7.348  10.077  0.0624 -0.2917  0.2920
 2916DECAN   C529145   4.562   7.452   9.993  0.2370 -0.2156  0.2267
 2916DECAN   C629146   4.527   7.398   9.853 -0.0983  0.2015  0.1471
 2916DECAN   C729147   4.416   7.486   9.791  0.1009  0.3631  0.0218
 2916DECAN   C829148   4.387   7.445   9.646  0.4846  0.2078 -0.0145
 2916DECAN   C929149   4.280   7.533   9.578  0.0569 -0.2353  0.0828
 2916DECAN  C1029150   4.144   7.515   9.648 -0.2497  0.0952 -0.4262
 2917DECAN   C129151   3.434   7.976   6.828 -0.5875  0.3596  0.0024
 2917DECAN   C229152   3.513   7.923   6.950  0.6956  0.4825 -0.7612
 2917DECAN   C329153   3.533   8.032   7.057 -0.0851 -0.2962  0.1914
 2917DECAN   C429154   3.639   7.985   7.159  0.4962  0.1914 -0.1786
 2917DECAN   C529155   3.681   8.097   7.255  0.0684  0.3320 -0.1513
 2917DECAN   C629156   3.552   8.169   7.297 -0.2166 -0.5116  0.4295
 2917DECAN   C729157   3.555   8.255   7.425 -0.1348 -0.1945  0.2160
 2917DECAN   C829158   3.679   8.343   7.445 -0.1633 -0.1544  0.2139
 2917DECAN   C929159   3.670   8.436   7.568  0.3026  0.0061  0.1297
 2917DECAN  C1029160   3.705   8.357   7.695  0.5170 -0.1428 -0.0220
 2918DECAN   C129161   4.769   8.467  12.731  0.2903  0.5452 -0.1606
 2918DECAN   C229162   4.786   8.331  12.660  0.0258  0.1840  0.4704
 2918DECAN   C329163   4.853   8.215  12.736  0.3354  0.4646  0.6262
 2918DECAN   C429164   4.840   8.080  12.662 -0.2935  0.7037  0.2917
 2918DECAN   C529165   4.912   7.970  12.743  0.1861  0.4579 -0.4628
 2918DECAN   C629166   4.912   7.835  12.669  0.4283  0.4267 -0.4081
 2918DECAN   C729167   4.964   7.712  12.745 -0.2748  0.4246  0.0811
 2918DECAN   C829168   5.112   7.707  12.788 -0.2726 -0.1223  0.0087
 2918DECAN   C929169   5.205   7.741  12.670 -0.8181 -0.1312 -0.4235
 2918DECAN  C1029170   5.246   7.615  12.591  0.4648 -0.1501  0.2459
 2919DECAN   C129171   4.615   8.643   7.432 -0.4366  0.4246 -0.1409
 2919DECAN   C229172   4.644   8.773   7.510 -0.4345  0.1051  0.4028
 2919DECAN   C329173   4.525   8.871   7.501 -0.4647  0.0084 -0.3060
 2919DECAN   C429174   4.517   8.975   7.614 -0.3432 -0.1702 -0.1331
 2919DECAN   C529175   4.513   8.922   7.758 -0.1989 -0.1273 -0.1128
 2919DECAN   C629176   4.482   9.037   7.856 -0.1847  0.1621 -0.4450
 2919DECAN   C729177   4.611   9.119   7.873 -0.3222  0.2485  0.1932
 2919DECAN   C829178   4.617   9.219   7.756 -0.1209  0.1105  0.0864
 2919DECAN   C929179   4.745   9.304   7.756  0.0848 -0.1979  0.5126
 2919DECAN  C1029180   4.740   9.450   7.708 -0.4768 -0.1730  0.6462
 2920DECAN   C129181   7.016   7.073   4.549  0.3376 -0.1317  0.3953
 2920DECAN   C229182   6.866   7.039   4.555  0.2400  0.2278  0.0589
 2920DECAN   C329183   6.815   6.923   4.467 -0.2282  0.0491  0.5570
 2920DECAN   C429184   6.664   6.899   4.484 -0.1868 -0.2536  0.4950
 2920DECAN   C529185   6.630   6.761   4.424 -0.1701 -0.0757  0.0729
 2920DECAN   C629186   6.483   6.719   4.437 -0.1980  0.1466  0.4728
 2920DECAN   C729187   6.438   6.587   4.372 -0.5227  0.5124 -0.0503
 2920DECAN   C829188   6.296   6.544   4.411 -0.5908  0.5920 -0.2092
 2920DECAN   C929189   6.242   6.420   4.338  0.1230 -0.4457  0.9861
 2920DECAN  C1029190   6.099   6.370   4.366 -0.3584  0.3063 -0.0732
 2921DECAN   C129191   9.923   5.806   6.383 -0.6952  0.3064  0.0348
 2921DECAN   C229192   9.823   5.726   6.298 -0.1615 -0.2604 -0.0625
 2921DECAN   C329193   9.895   5.620   6.212  0.5510  0.5489 -0.4855
 2921DECAN   C429194   9.817   5.583   6.085  0.2638 -0.1648 -0.1065
 2921DECAN   C529195   9.890   5.471   6.008  0.4090 -0.0989 -0.0654
 2921DECAN   C629196  10.035   5.502   5.966  0.5656 -0.0181  0.5223
 2921DECAN   C729197  10.032   5.622   5.869 -0.0291  0.0051  0.5646
 2921DECAN   C829198  10.174   5.680   5.856  0.0338 -0.2355  0.1452
 2921DECAN   C929199  10.240   5.740   5.982  0.5413  0.1495 -0.2973
 2921DECAN  C1029200  10.179   5.870   6.037 -0.3562 -0.2058 -0.4307
 2922DECAN   C129201   2.432   5.910  10.978  0.0940 -0.3644  0.0024
 2922DECAN   C229202   2.467   5.961  10.837  0.3014 -0.7462 -0.0847
 2922DECAN   C329203   2.442   5.854  10.730  0.2088 -0.8357  0.0253
 2922DECAN   C429204   2.305   5.829  10.664 -0.2424  0.1310  0.5765
 2922DECAN   C529205   2.241   5.941  10.581 -0.2273 -0.1806  0.1356
 2922DECAN   C629206   2.094   5.916  10.540 -0.1782 -0.6312  0.2351
 2922DECAN   C729207   1.985   5.898  10.647 -0.6665 -0.2017 -0.1878
 2922DECAN   C829208   1.838   5.879  10.603 -0.7417  0.6401 -0.3114
 2922DECAN   C929209   1.741   5.889  10.722  0.0513 -0.2382  0.4274
 2922DECAN  C1029210   1.598   5.842  10.691  0.0280  0.1926 -0.1315
 2923DECAN   C129211   2.120   7.491   6.526 -0.6229 -0.1541  0.9529
 2923DECAN   C229212   1.995   7.581   6.514 -0.3190  0.0927 -0.5419
 2923DECAN   C329213   2.000   7.725   6.568 -0.3662 -0.2936  0.5250
 2923DECAN   C429214   1.880   7.818   6.543  0.1146  0.2603  0.2536
 2923DECAN   C529215   1.918   7.958   6.594 -0.2217  0.4056  0.1093
 2923DECAN   C629216   1.811   8.069   6.601 -0.1183  0.5778 -0.8340
 2923DECAN   C729217   1.856   8.194   6.678 -0.9164  0.1490  0.3685
 2923DECAN   C829218   1.996   8.247   6.641 -0.7789 -0.4107  0.0900
 2923DECAN   C929219   2.007   8.297   6.495 -0.1006  0.1152  0.3189
 2923DECAN  C1029220   2.153   8.326   6.455 -0.1214 -0.0335  0.1378
 2924DECAN   C129221   3.730   2.325   9.807  0.3134  0.1545 -0.3561
 2924DECAN   C229222   3.624   2.382   9.711 -0.0410 -0.3483 -0.2638
 2924DECAN   C329223   3.490   2.406   9.783  0.4543  0.0137  0.5579
 2924DECAN   C429224   3.421   2.271   9.810  0.1476  0.0329 -0.0992
 2924DECAN   C529225   3.276   2.283   9.861  0.0959  0.4097 -0.3395
 2924DECAN   C629226   3.266   2.313  10.011 -0.4958  0.3886 -0.3710
 2924DECAN   C729227   3.121   2.356  10.039 -0.3890  0.5204 -0.0177
 2924DECAN   C829228   3.090   2.359  10.190  0.3469 -0.1967  0.1518
 2924DECAN   C929229   2.960   2.431  10.230  0.5871  0.2117  0.2078
 2924DECAN  C1029230   2.924   2.449  10.379 -0.1192 -0.0580  0.0718
 2925DECAN   C129231   7.517   5.748   5.572  0.1613  0.5805 -0.2848
 2925DECAN   C229232   7.569   5.882   5.629  0.2910  0.4162 -0.0162
 2925DECAN   C329233   7.455   5.974   5.675 -0.1436 -0.2320  0.2107
 2925DECAN   C429234   7.366   5.926   5.791  0.1073 -0.0083  0.4951
 2925DECAN   C529235   7.432   5.887   5.925  0.6510  0.3088  0.3214
 2925DECAN   C629236   7.342   5.811   6.024  0.5988 -0.6307 -0.4316
 2925DECAN   C729237   7.416   5.782   6.156 -0.4505 -0.0056  0.3109
 2925DECAN   C829238   7.342   5.698   6.261 -0.4158 -0.1207  0.2437
 2925DECAN   C929239   7.415   5.713   6.395  0.0538  0.2391 -0.0504
 2925DECAN  C1029240   7.321   5.698   6.516 -0.6078  0.5153 -0.5278
 2926DECAN   C129241   9.679  10.676   4.459  0.2875  0.1908 -0.2950
 2926DECAN   C229242   9.586  10.572   4.395  0.2817  0.1140 -0.1615
 2926DECAN   C329243   9.589  10.438   4.471  0.2107  0.3534  0.2618
 2926DECAN   C429244   9.550  10.459   4.619  1.1108  0.3847  0.5028
 2926DECAN   C529245   9.523  10.323   4.686 -0.4086  0.3391 -0.1687
 2926DECAN   C629246   9.461  10.334   4.826 -0.2228  0.1533 -0.0717
 2926DECAN   C729247   9.383  10.211   4.876 -0.2139  0.1437 -0.0826
 2926DECAN   C829248   9.274  10.234   4.982 -0.0435 -0.2530  0.1805
 2926DECAN   C929249   9.214  10.110   5.049  0.4925 -0.2585  0.6648
 2926DECAN  C1029250   9.107  10.152   5.152 -0.0307 -0.0131  0.0266
 2927DECAN   C129251   2.467   7.168   9.107 -0.0892  0.4939  0.3368
 2927DECAN   C229252   2.339   7.130   9.030  0.0635 -1.3249  0.9401
 2927DECAN   C329253   2.219   7.225   9.051  0.7196 -0.3065  0.1797
 2927DECAN   C429254   2.262   7.368   9.014 -0.2433 -0.1129 -0.2263
 2927DECAN   C529255   2.172   7.483   9.061 -0.1589 -0.1625  0.0594
 2927DECAN   C629256   2.217   7.629   9.044  0.0531 -0.2768 -0.3732
 2927DECAN   C729257   2.245   7.671   8.898 -0.6708  0.1780 -0.3906
 2927DECAN   C829258   2.272   7.818   8.863  0.1989  0.0029 -0.4994
 2927DECAN   C929259   2.291   7.854   8.715  0.0295 -0.2493 -0.5832
 2927DECAN  C1029260   2.413   7.785   8.651  0.2581  0.2067 -0.6452
 2928DECAN   C129261   4.929   0.180  10.859  0.2486  0.0582  0.2047
 2928DECAN   C229262   5.060   0.178  10.941  0.2302  0.4152  0.2444
 2928DECAN   C329263   5.033   0.184  11.093  0.2518 -0.6196  0.2986
 2928DECAN   C429264   5.147   0.204  11.194  0.2315  0.3394  0.1472
 2928DECAN   C529265   5.092   0.192  11.337 -0.4761 -0.0917 -0.1522
 2928DECAN   C629266   5.018   0.321  11.377 -0.0303  0.1236 -0.0057
 2928DECAN   C729267   4.924   0.304  11.498 -0.3735  0.1731 -0.2621
 2928DECAN   C829268   4.884   0.440  11.559  0.0919  0.4160 -0.4950
 2928DECAN   C929269   4.789   0.430  11.679  0.2338  0.1147 -0.4052
 2928DECAN  C1029270   4.758   0.551  11.769 -0.2736  0.2499 -0.7564
 2929DECAN   C129271   2.434   0.910   6.537 -0.2499  0.3892  0.0288
 2929DECAN   C229272   2.414   0.885   6.687  0.0107  0.3453  0.0573
 2929DECAN   C329273   2.538   0.871   6.777  0.0940  0.3865 -0.0508
 2929DECAN   C429274   2.511   0.885   6.928  0.5426  0.1847  0.0516
 2929DECAN   C529275   2.602   0.791   7.008 -0.0642 -0.6652 -0.2463
 2929DECAN   C629276   2.599   0.827   7.158  0.1274 -0.2634 -0.3391
 2929DECAN   C729277   2.669   0.743   7.267 -0.0846 -0.3070 -0.2362
 2929DECAN   C829278   2.821   0.744   7.245 -0.0438 -0.2215  0.0563
 2929DECAN   C929279   2.881   0.657   7.133  0.1334 -0.4847  0.3548
 2929DECAN  C1029280   3.035   0.665   7.119  0.1116  0.3231  0.5029
 2930DECAN   C129281   4.287   8.314   6.340 -0.3900  0.3588  0.3942
 2930DECAN   C229282   4.321   8.300   6.490  0.2112 -0.3808  0.1964
 2930DECAN   C329283   4.423   8.189   6.517  0.6218 -0.1855 -0.5316
 2930DECAN   C429284   4.465   8.193   6.665  0.0937 -0.2324 -0.3774
 2930DECAN   C529285   4.588   8.107   6.702  0.9316  0.9531 -0.3651
 2930DECAN   C629286   4.628   8.093   6.850 -0.3817  0.4171 -0.0453
 2930DECAN   C729287   4.564   7.967   6.912 -0.1490  0.3012 -0.0381
 2930DECAN   C829288   4.411   7.981   6.912 -0.1986 -0.2047 -0.2588
 2930DECAN   C929289   4.323   7.896   7.004 -0.1192  0.0083  0.0154
 2930DECAN  C1029290   4.341   7.745   6.981  0.6733  0.1473 -0.2792
 2931DECAN   C129291   9.355   6.807  11.439 -0.3854 -0.5069 -0.3679
 2931DECAN   C229292   9.490   6.879  11.447 -0.5549 -0.2466  0.2335
 2931DECAN   C329293   9.599   6.827  11.543 -0.0868  0.7508  0.2564
 2931DECAN   C429294   9.541   6.835  11.685  0.2080  0.1135  0.4135
 2931DECAN   C529295   9.631   6.771  11.792  0.2819 -0.4037  0.0434
 2931DECAN   C629296   9.619   6.617  11.802  0.2683 -0.3911  0.2308
 2931DECAN   C729297   9.687   6.552  11.923  0.2362 -0.0845  0.4136
 2931DECAN   C829298   9.642   6.607  12.060  0.4561  0.7004  0.1803
 2931DECAN   C929299   9.705   6.522  12.173 -0.0049 -0.3963 -0.3665
 2931DECAN  C1029300   9.678   6.579  12.313 -0.4543 -0.1932 -0.5345
 2932DECAN   C129301   6.819  10.299  10.492  0.7206 -0.0342 -0.2947
 2932DECAN   C229302   6.879  10.396  10.388  0.3552  0.2856 -0.2075
 2932DECAN   C329303   6.873  10.333  10.248  0.7112 -0.5870  0.1626
 2932DECAN   C429304   6.930  10.424  10.137 -0.1311  0.4593  0.5776
 2932DECAN   C529305   6.841  10.550  10.136 -0.5135  0.1965 -0.8216
 2932DECAN   C629306   6.874  10.654  10.027  0.1523  0.1589 -0.6594
 2932DECAN   C729307   6.766  10.762  10.017  0.0011  0.0332 -0.3921
 2932DECAN   C829308   6.760  10.830  10.155  0.3551 -0.0575 -0.3312
 2932DECAN   C929309   6.664  10.951  10.160  0.1077 -0.2546 -0.3037
 2932DECAN  C1029310   6.518  10.919  10.125  0.0226 -0.2028 -0.0004
 2933DECAN   C129311   7.831   3.478  13.981 -0.4752 -0.1455 -0.2553
 2933DECAN   C229312   7.725   3.395  14.056 -0.4816  0.0547 -0.0416
 2933DECAN   C329313   7.778   3.318  14.178  0.3646  0.0586 -0.3934
 2933DECAN   C429314   7.680   3.212  14.233  0.5161  0.1607  0.0807
 2933DECAN   C529315   7.623   3.120  14.123  0.2605 -0.1139  0.4406
 2933DECAN   C629316   7.731   3.071  14.025 -0.0359 -0.2840  0.1980
 2933DECAN   C729317   7.660   2.992  13.914  0.3499 -0.2955 -0.0408
 2933DECAN   C829318   7.758   2.913  13.824  0.3536  0.3958 -0.6608
 2933DECAN   C929319   7.871   2.865  13.917 -0.1458  0.0359 -0.2244
 2933DECAN  C1029320   7.933   2.736  13.860  0.1116  0.1850 -0.2858
 2934DECAN   C129321   6.528  10.885  11.920  0.7576 -0.5482 -0.2724
 2934DECAN   C229322   6.523  10.896  11.766 -0.2872  0.3506 -0.1867
 2934DECAN   C329323   6.658  10.854  11.706 -0.3378 -0.0321 -0.0338
 2934DECAN   C429324   6.697  10.708  11.734 -0.2202 -0.0202 -0.1303
 2934DECAN   C529325   6.717  10.680  11.884 -0.0853  0.1437 -0.1172
 2934DECAN   C629326   6.774  10.537  11.898  0.5555  0.3619 -0.4552
 2934DECAN   C729327   6.828  10.509  12.039 -0.2026 -0.0243 -0.2368
 2934DECAN   C829328   6.903  10.375  12.056  0.1331  0.2325  0.3180
 2934DECAN   C929329   6.972  10.351  12.192  0.2461  0.0425  0.2271
 2934DECAN  C1029330   7.054  10.220  12.188  0.0017 -0.1202  0.4553
 2935DECAN   C129331   6.365   9.391   6.695  0.4539 -0.1065 -0.7698
 2935DECAN   C229332   6.240   9.306   6.722  0.4755 -0.0264 -0.4031
 2935DECAN   C329333   6.139   9.313   6.605  0.1898 -0.0123 -0.1564
 2935DECAN   C429334   6.074   9.175   6.585 -0.2530  0.1400  0.2116
 2935DECAN   C529335   5.975   9.170   6.468 -0.2214 -0.5757  0.2074
 2935DECAN   C629336   5.927   9.035   6.413 -0.5975 -0.3339 -0.0696
 2935DECAN   C729337   6.042   8.961   6.341 -0.0236  0.1652  0.3201
 2935DECAN   C829338   6.012   8.825   6.275  0.1687  0.5690 -0.6084
 2935DECAN   C929339   6.138   8.760   6.214  0.2113 -0.1057  0.1854
 2935DECAN  C1029340   6.107   8.621   6.155  0.1743 -0.0649  0.1103
 2936DECAN   C129341   2.037   5.007  13.014 -0.2511  0.4086 -0.0566
 2936DECAN   C229342   2.061   5.127  12.921  0.0018  0.3018 -0.1279
 2936DECAN   C329343   2.211   5.137  12.886  0.0501 -0.1704 -0.0671
 2936DECAN   C429344   2.243   5.230  12.768  0.7504 -0.0636  0.2013
 2936DECAN   C529345   2.392   5.266  12.756  0.7659 -0.4053 -0.7068
 2936DECAN   C629346   2.460   5.349  12.866  0.0458 -0.5490 -0.1476
 2936DECAN   C729347   2.608   5.382  12.835  0.2013 -0.5650  0.5545
 2936DECAN   C829348   2.673   5.443  12.960 -0.0834 -0.1996  0.5265
 2936DECAN   C929349   2.827   5.449  12.946 -0.1741  0.1156 -0.3854
 2936DECAN  C1029350   2.905   5.530  13.051 -0.3971 -0.2306  0.0509
 2937DECAN   C129351   4.730   6.874   6.407  0.3697 -0.8090  0.1938
 2937DECAN   C229352   4.858   6.840   6.486  0.5543 -0.2355  0.1402
 2937DECAN   C329353   4.977   6.776   6.411  0.2506 -0.7236  0.0761
 2937DECAN   C429354   5.107   6.757   6.491  0.2078 -1.1496  0.0484
 2937DECAN   C529355   5.221   6.715   6.396  0.0362 -1.1756 -0.1474
 2937DECAN   C629356   5.357   6.678   6.458  0.4611 -0.2102 -0.4876
 2937DECAN   C729357   5.465   6.644   6.353  0.3712 -0.3015 -0.5507
 2937DECAN   C829358   5.530   6.770   6.292  0.0306  0.2460  0.2030
 2937DECAN   C929359   5.585   6.850   6.412 -0.4701  0.1465  0.5009
 2937DECAN  C1029360   5.693   6.782   6.499 -0.1964 -0.2671 -0.1538
 2938DECAN   C129361   3.096   8.003   8.808 -0.3851 -0.9854  0.2063
 2938DECAN   C229362   3.026   7.899   8.718 -0.1545 -0.6542 -0.3647
 2938DECAN   C329363   2.874   7.923   8.712  0.0108  0.5588 -0.0714
 2938DECAN   C429364   2.800   7.795   8.668  0.4437  0.0806  0.5815
 2938DECAN   C529365   2.791   7.684   8.776 -0.4832 -0.4790 -0.0550
 2938DECAN   C629366   2.719   7.558   8.726 -0.6337 -0.4266  0.0271
 2938DECAN   C729367   2.784   7.498   8.599  0.3282  0.0774  0.2686
 2938DECAN   C829368   2.695   7.406   8.512  0.6525 -0.1406  0.1683
 2938DECAN   C929369   2.625   7.298   8.596  0.3846  0.0293  0.1621
 2938DECAN  C1029370   2.563   7.360   8.723  0.3465 -0.1037  0.2097
 2939DECAN   C129371   8.996   3.450  10.486  0.7115 -0.0843  0.6357
 2939DECAN   C229372   8.869   3.447  10.573  0.2077  0.3017 -0.0723
 2939DECAN   C329373   8.800   3.583  10.593  0.0697  0.2119  0.0652
 2939DECAN   C429374   8.698   3.597  10.707 -0.0798  0.2328 -0.0706
 2939DECAN   C529375   8.767   3.598  10.845 -0.1916  0.1564 -0.0133
 2939DECAN   C629376   8.806   3.461  10.904  0.2897 -0.0174 -0.7226
 2939DECAN   C729377   8.877   3.464  11.040 -0.0444 -0.0795 -0.5458
 2939DECAN   C829378   8.795   3.521  11.158  0.2221 -0.0798 -0.3600
 2939DECAN   C929379   8.885   3.514  11.282  0.3336 -0.4369 -0.4597
 2939DECAN  C1029380   8.854   3.395  11.375 -0.7575 -0.2936 -0.6346
 2940DECAN   C129381   4.625   7.371   5.634 -0.1560 -0.4922  0.3439
 2940DECAN   C229382   4.592   7.354   5.784 -0.0090 -0.0012  0.4302
 2940DECAN   C329383   4.440   7.334   5.788 -0.0224  0.0322  0.0757
 2940DECAN   C429384   4.354   7.462   5.798  0.4296  0.3104  0.4249
 2940DECAN   C529385   4.386   7.540   5.926  0.1688  0.9780  0.0868
 2940DECAN   C629386   4.531   7.584   5.901  0.5659 -0.2966  0.1200
 2940DECAN   C729387   4.599   7.672   6.007 -0.0445  0.0072  0.2590
 2940DECAN   C829388   4.722   7.749   5.956 -0.3513  0.2392 -0.1327
 2940DECAN   C929389   4.767   7.867   6.043 -0.0076  0.2361 -0.3062
 2940DECAN  C1029390   4.879   7.951   5.978  0.3736 -0.0155  0.0202
 2941DECAN   C129391   3.286   1.474   9.034 -0.1678 -0.1425 -0.2426
 2941DECAN   C229392   3.216   1.407   9.154  0.3891  0.2883  0.3282
 2941DECAN   C329393   3.294   1.399   9.286  0.6451 -0.5658  0.1319
 2941DECAN   C429394   3.210   1.416   9.414  0.1410 -0.3194 -0.2318
 2941DECAN   C529395   3.279   1.400   9.550  0.2738  0.0901 -0.2498
 2941DECAN   C629396   3.306   1.252   9.582 -0.1374  0.0064 -0.2884
 2941DECAN   C729397   3.339   1.221   9.729  0.1294  0.1209 -0.3249
 2941DECAN   C829398   3.457   1.293   9.797  0.0068  0.0087  0.0059
 2941DECAN   C929399   3.461   1.261   9.948 -0.1177 -0.3804 -0.0709
 2941DECAN  C1029400   3.579   1.331  10.018 -0.5796 -0.2402  0.5764
 2942DECAN   C129401   2.886   8.282   4.778  0.1232  0.4420 -0.1932
 2942DECAN   C229402   3.035   8.284   4.739  0.1410  0.3567 -0.1283
 2942DECAN   C329403   3.058   8.232   4.596  0.3353  0.2074 -0.0424
 2942DECAN   C429404   3.030   8.346   4.496  0.4262  0.1579 -0.1247
 2942DECAN   C529405   3.018   8.301   4.349 -0.2084  0.0589 -0.0472
 2942DECAN   C629406   2.941   8.397   4.257 -0.0666 -0.0280 -0.2548
 2942DECAN   C729407   2.870   8.314   4.148  0.1195  0.0034 -0.3997
 2942DECAN   C829408   2.807   8.390   4.030 -0.3656  0.4210  0.1231
 2942DECAN   C929409   2.735   8.296   3.931  0.1820  0.6980 -0.5519
 2942DECAN  C1029410   2.827   8.189   3.869  0.0312  0.5034 -0.4389
 2943DECAN   C129411   7.614   1.693   8.646  0.7698  0.2410  0.3495
 2943DECAN   C229412   7.615   1.773   8.514  0.5634 -0.6711 -0.2108
 2943DECAN   C329413   7.750   1.848   8.510  0.3764 -0.2890  0.4349
 2943DECAN   C429414   7.741   1.965   8.411 -0.4515 -0.5054  0.2452
 2943DECAN   C529415   7.827   1.953   8.284 -0.3667 -0.2864  0.2793
 2943DECAN   C629416   7.811   2.063   8.178  0.0615 -0.0481  0.4609
 2943DECAN   C729417   7.891   2.040   8.049  0.3970 -0.5859  0.7628
 2943DECAN   C829418   8.043   2.042   8.074  0.5046 -0.2893  0.1045
 2943DECAN   C929419   8.084   1.918   8.156 -0.0353 -0.7545 -0.3212
 2943DECAN  C1029420   8.237   1.901   8.154  0.1535  0.7252  0.1088
 2944DECAN   C129421   9.610   0.649   7.702 -0.2374  0.1571 -0.6013
 2944DECAN   C229422   9.553   0.787   7.665 -0.0870  0.2435 -0.5111
 2944DECAN   C329423   9.418   0.791   7.591 -0.5347 -0.2818  0.2679
 2944DECAN   C429424   9.412   0.855   7.452 -0.1173 -0.2590  0.2595
 2944DECAN   C529425   9.466   0.999   7.460 -0.5909 -0.0878  0.3828
 2944DECAN   C629426   9.492   1.063   7.323 -0.0841  0.1231  0.5744
 2944DECAN   C729427   9.513   1.215   7.331 -0.1586  0.1667  0.0021
 2944DECAN   C829428   9.538   1.263   7.187  0.1374  0.0228  0.0052
 2944DECAN   C929429   9.548   1.416   7.168  0.2375  0.1118  0.7565
 2944DECAN  C1029430   9.433   1.493   7.235  0.0466 -0.0592  0.6277
 2945DECAN   C129431  10.483   1.656   6.410 -0.3894  0.2558 -0.3222
 2945DECAN   C229432  10.603   1.732   6.469 -0.0146 -0.2081 -0.4795
 2945DECAN   C329433  10.614   1.883   6.444  0.0769 -0.2115 -0.4598
 2945DECAN   C429434  10.489   1.955   6.497  0.0352 -0.8048  0.2639
 2945DECAN   C529435  10.463   2.095   6.439  0.4362 -0.4854  0.8359
 2945DECAN   C629436  10.349   2.169   6.512 -0.0838 -0.9885  0.5511
 2945DECAN   C729437  10.214   2.106   6.476 -0.5642  0.3122  0.0102
 2945DECAN   C829438  10.088   2.131   6.561 -0.6965  0.6343 -0.2797
 2945DECAN   C929439   9.981   2.024   6.535 -0.0633 -0.0158 -0.2332
 2945DECAN  C1029440   9.865   2.030   6.636 -0.7327 -0.6518 -0.9467
 2946DECAN   C129441   5.460   1.444   4.846 -0.2012 -0.3103 -0.4927
 2946DECAN   C229442   5.321   1.381   4.867 -0.3754  0.2064 -0.0551
 2946DECAN   C329443   5.289   1.272   4.763 -0.0841 -0.1718  0.2481
 2946DECAN   C429444   5.219   1.149   4.824  0.0262  0.1107  0.9565
 2946DECAN   C529445   5.212   1.027   4.730  0.3685  0.4593  0.4759
 2946DECAN   C629446   5.125   1.037   4.603  0.5556  0.2415  0.3296
 2946DECAN   C729447   5.086   0.902   4.539 -0.1324  0.5843  0.0254
 2946DECAN   C829448   5.015   0.905   4.403 -0.6859  0.6691  0.3113
 2946DECAN   C929449   4.960   0.766   4.365  0.4064  0.3579 -0.1626
 2946DECAN  C1029450   4.915   0.760   4.218  0.2536  0.8031 -0.1353
 2947DECAN   C129451   6.920   6.885  13.809 -0.1260 -0.0745  0.5597
 2947DECAN   C229452   6.898   6.933  13.664 -0.1346 -0.5387  0.4072
 2947DECAN   C329453   7.018   7.019  13.622 -0.7348 -0.0750 -0.3865
 2947DECAN   C429454   7.000   7.081  13.482  0.1657  0.1409 -0.4119
 2947DECAN   C529455   7.099   7.196  13.456  0.1774  0.1112 -0.4986
 2947DECAN   C629456   7.245   7.150  13.470  0.1524  0.1656 -0.0658
 2947DECAN   C729457   7.287   7.145  13.619  0.1379 -0.4574 -0.0788
 2947DECAN   C829458   7.410   7.060  13.655  0.6718  0.5284  0.4440
 2947DECAN   C929459   7.417   7.001  13.797 -0.0670  0.1332  0.3209
 2947DECAN  C1029460   7.558   6.943  13.819 -0.0767 -0.0989 -0.2093
 2948DECAN   C129461   5.417   4.715  11.542  0.4155  0.4631  0.3088
 2948DECAN   C229462   5.484   4.577  11.546  0.1273  0.3046 -0.2567
 2948DECAN   C329463   5.493   4.506  11.409  0.1737  0.1844 -0.1913
 2948DECAN   C429464   5.517   4.354  11.410 -0.8534  0.0221  0.0533
 2948DECAN   C529465   5.482   4.292  11.274 -0.3381  0.3404 -0.2247
 2948DECAN   C629466   5.491   4.139  11.262  0.0521  0.3586 -0.1611
 2948DECAN   C729467   5.403   4.052  11.354 -0.0324  0.3805 -0.2213
 2948DECAN   C829468   5.256   4.096  11.346 -0.1068  0.0965 -0.4472
 2948DECAN   C929469   5.159   3.988  11.398  0.2521 -0.1354 -0.2605
 2948DECAN  C1029470   5.181   3.854  11.326  0.2235  0.0961 -0.7031
 2949DECAN   C129471   2.657   2.959  14.474  0.0047 -0.4779  0.1488
 2949DECAN   C229472   2.747   3.025  14.368  0.1170 -0.5826  0.1777
 2949DECAN   C329473   2.698   3.002  14.224  0.1521  0.4198 -0.0016
 2949DECAN   C429474   2.599   3.108  14.171  0.5145  0.5237 -0.4784
 2949DECAN   C529475   2.476   3.116  14.263  0.9694  0.4372  0.1453
 2949DECAN   C629476   2.359   3.201  14.209  0.2744 -0.8149 -0.3580
 2949DECAN   C729477   2.224   3.140  14.250  0.1854  0.1079  0.7569
 2949DECAN   C829478   2.110   3.222  14.186  0.3876  0.0718  0.3498
 2949DECAN   C929479   1.977   3.151  14.215  0.1012  0.5113  0.1137
 2949DECAN  C1029480   1.857   3.194  14.128 -0.4691  0.1067  0.6911
 2950DECAN   C129481   5.007   1.967   4.665  0.5078 -0.0813  0.2683
 2950DECAN   C229482   4.860   1.921   4.663  0.4491  0.0933  0.4612
 2950DECAN   C329483   4.767   2.034   4.708 -0.4608 -0.3505 -0.2784
 2950DECAN   C429484   4.635   1.988   4.772 -0.3130  0.2331  0.4634
 2950DECAN   C529485   4.554   1.888   4.686  0.6387  0.2936 -0.5283
 2950DECAN   C629486   4.449   1.961   4.600 -0.3862 -0.1775  0.2994
 2950DECAN   C729487   4.399   1.845   4.511 -0.5888 -0.1696  0.4025
 2950DECAN   C829488   4.323   1.893   4.387  0.3601  0.5021  0.0634
 2950DECAN   C929489   4.399   2.000   4.307  0.3058  0.2494 -0.3327
 2950DECAN  C1029490   4.437   2.110   4.408  0.7436 -0.4158  0.2382
 2951DECAN   C129491   5.874   8.086   8.100 -0.0605  0.6110  0.9495
 2951DECAN   C229492   5.961   8.077   7.974 -0.7357  0.8178  0.4601
 2951DECAN   C329493   5.962   8.200   7.882  0.2022  0.1068 -0.5162
 2951DECAN   C429494   6.048   8.192   7.755  1.1148 -0.3183  0.1221
 2951DECAN   C529495   6.002   8.084   7.655  0.4313 -0.2359  0.3428
 2951DECAN   C629496   6.078   8.097   7.521  0.2413 -0.0846  0.2491
 2951DECAN   C729497   6.048   7.971   7.437 -0.5141  0.4096 -0.2341
 2951DECAN   C829498   6.138   7.965   7.312  0.0287 -0.2282  0.1762
 2951DECAN   C929499   6.076   7.896   7.189  0.0100 -0.0349  0.0761
 2951DECAN  C1029500   6.164   7.899   7.063  0.0145  0.0967  0.0830
 2952DECAN   C129501  10.037   7.317   8.545 -0.1731 -0.5185  0.1465
 2952DECAN   C229502  10.121   7.346   8.671  0.2088  0.5041 -0.3323
 2952DECAN   C329503  10.154   7.495   8.691  0.4278  0.3671  0.3474
 2952DECAN   C429504  10.026   7.569   8.735  0.0967  0.1293 -0.2084
 2952DECAN   C529505  10.045   7.722   8.727 -0.0489  0.1535 -0.1029
 2952DECAN   C629506   9.938   7.805   8.799  0.5544  0.5695  0.3235
 2952DECAN   C729507   9.956   7.954   8.766  0.7262  0.5144  0.1687
 2952DECAN   C829508   9.822   8.030   8.776 -0.0259 -0.8594  0.7877
 2952DECAN   C929509   9.701   7.953   8.720  0.0739 -0.4088 -0.0560
 2952DECAN  C1029510   9.565   8.024   8.708  0.1836 -0.1385  0.2705
 2953DECAN   C129511   3.276   9.999   7.256  0.0166  0.2687  0.1269
 2953DECAN   C229512   3.387  10.035   7.155 -0.2154 -0.0482 -0.2446
 2953DECAN   C329513   3.531  10.020   7.207 -0.1815  0.1330 -0.2858
 2953DECAN   C429514   3.559  10.086   7.344 -0.2187 -0.4631  0.0112
 2953DECAN   C529515   3.544  10.238   7.328  0.1158 -0.4026  0.2645
 2953DECAN   C629516   3.582  10.326   7.448 -0.0614  0.5557 -0.3710
 2953DECAN   C729517   3.729  10.364   7.470  0.1360  0.0073 -0.7397
 2953DECAN   C829518   3.789  10.490   7.403  0.3775  0.3396  0.0941
 2953DECAN   C929519   3.738  10.616   7.476 -0.0567  0.0864  0.2398
 2953DECAN  C1029520   3.585  10.627   7.482 -0.0262  0.4024  0.4525
 2954DECAN   C129521   1.779  10.359   6.779  0.1365  0.3015  0.0376
 2954DECAN   C229522   1.734  10.484   6.856 -0.2310 -0.1750  0.6096
 2954DECAN   C329523   1.585  10.522   6.854 -0.3032 -0.4562  0.6788
 2954DECAN   C429524   1.549  10.657   6.918  0.2256  0.1386 -0.2631
 2954DECAN   C529525   1.596  10.781   6.839 -0.4129  0.2615 -0.4631
 2954DECAN   C629526   1.572  10.916   6.909 -0.4834  0.0676 -0.1108
 2954DECAN   C729527   1.611  11.032   6.816 -0.3566 -0.1070 -0.2770
 2954DECAN   C829528   1.611  11.173   6.879  0.4823 -0.3769  0.3379
 2954DECAN   C929529   1.518  11.195   7.000  0.1488  0.2328 -0.0271
 2954DECAN  C1029530   1.371  11.167   6.963  0.3401 -0.4137 -0.3165
 2955DECAN   C129531  10.504   6.196  12.023  0.4543 -0.1657 -0.4667
 2955DECAN   C229532  10.579   6.101  11.927  0.5608 -0.1649 -0.3837
 2955DECAN   C329533  10.543   6.131  11.781  0.0747  0.6611 -0.1019
 2955DECAN   C429534  10.397   6.176  11.764 -0.1782 -0.0261  0.2288
 2955DECAN   C529535  10.360   6.199  11.616 -0.0854 -0.3211  0.1602
 2955DECAN   C629536  10.217   6.253  11.596  0.1644  0.3079  0.0350
 2955DECAN   C729537  10.194   6.387  11.670  0.2980  0.3810 -0.0562
 2955DECAN   C829538  10.061   6.459  11.645 -0.0472 -0.1079  0.3511
 2955DECAN   C929539  10.059   6.542  11.516 -0.4004 -0.1760  0.3101
 2955DECAN  C1029540   9.932   6.628  11.504 -0.1296  0.1446 -0.3120
 2956DECAN   C129541   7.309   4.422   6.401  0.2741 -0.1206 -0.7948
 2956DECAN   C229542   7.299   4.515   6.279  0.5442  0.1061 -0.6448
 2956DECAN   C329543   7.229   4.449   6.158 -0.0945 -0.0991 -0.1709
 2956DECAN   C429544   7.236   4.519   6.021  0.0390  0.3756  0.0746
 2956DECAN   C529545   7.160   4.652   6.036 -0.3550  0.0935  0.6032
 2956DECAN   C629546   7.145   4.747   5.916  0.1905 -0.0589  0.4123
 2956DECAN   C729547   7.070   4.879   5.945  0.2343  0.1529 -0.4260
 2956DECAN   C829548   7.133   4.980   6.042  0.4568 -0.3888 -0.0040
 2956DECAN   C929549   7.027   5.083   6.085  0.4064 -0.4975  0.1336
 2956DECAN  C1029550   6.887   5.025   6.057  0.3429 -0.2424 -0.0742
 2957DECAN   C129551   2.248   3.067   5.300 -0.0174 -0.3378 -0.5695
 2957DECAN   C229552   2.205   2.993   5.428  0.4304 -0.1161 -0.2880
 2957DECAN   C329553   2.267   2.854   5.452  0.2979 -0.0745  0.3032
 2957DECAN   C429554   2.227   2.782   5.582 -0.8554 -0.1301 -0.0732
 2957DECAN   C529555   2.267   2.634   5.597  0.4427  0.2309  0.1375
 2957DECAN   C629556   2.267   2.597   5.746 -0.0052  0.3664  0.1712
 2957DECAN   C729557   2.293   2.446   5.760 -0.0502  0.3191 -0.2427
 2957DECAN   C829558   2.288   2.405   5.909  0.2273  0.0513 -0.3064
 2957DECAN   C929559   2.295   2.254   5.937 -0.4106  0.0468 -0.1685
 2957DECAN  C1029560   2.158   2.183   5.936 -0.3657 -0.0437 -0.0043
 2958DECAN   C129561   7.129   9.359   4.400 -0.2147  0.4111 -0.2397
 2958DECAN   C229562   7.283   9.362   4.395 -0.2087  0.3384 -0.1232
 2958DECAN   C329563   7.342   9.280   4.279 -0.7230  0.1348 -0.2428
 2958DECAN   C429564   7.481   9.323   4.229 -0.6721  0.1300 -0.1061
 2958DECAN   C529565   7.580   9.316   4.346 -0.3762 -0.0904 -0.3660
 2958DECAN   C629566   7.716   9.379   4.309 -0.0376 -0.0932  0.8208
 2958DECAN   C729567   7.800   9.402   4.435  0.5792 -0.0539  0.4048
 2958DECAN   C829568   7.887   9.280   4.473  0.2185 -0.3648  0.2378
 2958DECAN   C929569   7.986   9.306   4.588  0.0188 -0.3986  0.4175
 2958DECAN  C1029570   8.083   9.190   4.619  0.2775 -0.4031 -0.4023
 2959DECAN   C129571   8.356   6.839   8.097 -0.0895  0.4770  0.0269
 2959DECAN   C229572   8.421   6.918   8.212 -0.0942  0.1954  0.2238
 2959DECAN   C329573   8.574   6.921   8.221 -0.0716  0.5223 -0.2666
 2959DECAN   C429574   8.616   7.015   8.335 -0.4481  0.0457  0.2677
 2959DECAN   C529575   8.760   7.007   8.389 -0.4187 -0.1793  0.1520
 2959DECAN   C629576   8.790   7.111   8.499  0.0282 -0.3116  0.1567
 2959DECAN   C729577   8.693   7.124   8.618 -0.1473 -0.4036  0.0253
 2959DECAN   C829578   8.722   7.244   8.711  0.0566 -0.2775 -0.1994
 2959DECAN   C929579   8.849   7.250   8.797  0.1675  0.0723 -0.3858
 2959DECAN  C1029580   8.859   7.382   8.876  0.8282  0.1300 -0.5561
 2960DECAN   C129581   5.721   9.510  10.530 -0.2016  0.6892 -0.1312
 2960DECAN   C229582   5.609   9.461  10.623  0.4619 -0.5913  0.0146
 2960DECAN   C329583   5.675   9.451  10.762  0.5371  0.2161  0.0383
 2960DECAN   C429584   5.582   9.440  10.883  0.2482  0.2725 -0.1774
 2960DECAN   C529585   5.661   9.461  11.014  0.1848  0.6593 -0.2012
 2960DECAN   C629586   5.591   9.416  11.143 -0.1156  0.5957 -0.3844
 2960DECAN   C729587   5.689   9.417  11.263 -0.3791  0.2563 -0.1648
 2960DECAN   C829588   5.810   9.325  11.238 -0.3279  0.2593  0.0766
 2960DECAN   C929589   5.903   9.317  11.361 -0.0693  0.3113 -0.1152
 2960DECAN  C1029590   6.033   9.240  11.335 -0.1375  0.0774  0.2368
 2961DECAN   C129591   8.169   2.871  14.410 -0.0154 -0.3209  0.0401
 2961DECAN   C229592   8.141   2.794  14.280 -0.1547 -0.0048 -0.1183
 2961DECAN   C329593   8.262   2.737  14.204 -0.0358 -0.2871  0.2833
 2961DECAN   C429594   8.356   2.648  14.287  0.1146 -0.4909 -0.1041
 2961DECAN   C529595   8.484   2.606  14.211 -0.1066 -0.8458 -0.2818
 2961DECAN   C629596   8.546   2.480  14.274  0.2131 -0.3763  0.3503
 2961DECAN   C729597   8.543   2.477  14.428  0.2045  0.2348  0.3668
 2961DECAN   C829598   8.405   2.485  14.495 -0.0278 -0.2784 -0.0364
 2961DECAN   C929599   8.401   2.434  14.640  0.3158 -0.1135  0.0332
 2961DECAN  C1029600   8.266   2.454  14.711  0.0674 -0.0960 -0.4406
 2962DECAN   C129601   8.610   2.370   7.876 -0.1393  0.5857 -0.5421
 2962DECAN   C229602   8.682   2.308   7.754  0.3746  0.2493 -0.0763
 2962DECAN   C329603   8.806   2.225   7.792  0.2589  0.1550  0.0995
 2962DECAN   C429604   8.831   2.130   7.674  0.0296  0.0438  0.1387
 2962DECAN   C529605   8.723   2.023   7.651  0.1674 -0.0988  0.1575
 2962DECAN   C629606   8.674   1.972   7.788 -0.4010  0.1239  0.0377
 2962DECAN   C729607   8.648   1.820   7.801  1.0110 -0.1315 -0.0320
 2962DECAN   C829608   8.643   1.787   7.951  0.2152 -0.2089 -0.0746
 2962DECAN   C929609   8.623   1.638   7.984  0.5604 -0.3484 -0.4824
 2962DECAN  C1029610   8.725   1.536   7.931  0.3185 -0.6716 -0.3305
 2963DECAN   C129611   5.176   5.559   9.040 -0.3274  0.4839 -0.2700
 2963DECAN   C229612   5.184   5.557   8.886 -0.2034 -0.0364 -0.2579
 2963DECAN   C329613   5.313   5.596   8.812  0.2913 -0.3045  0.4524
 2963DECAN   C429614   5.427   5.495   8.835  0.3286 -0.3659  0.0189
 2963DECAN   C529615   5.567   5.555   8.812  0.2049  0.0126  0.2436
 2963DECAN   C629616   5.595   5.585   8.664 -0.5722 -0.0138  0.0866
 2963DECAN   C729617   5.722   5.671   8.646 -0.8404  0.2630 -0.5378
 2963DECAN   C829618   5.714   5.807   8.718 -0.3192  0.0251 -0.0175
 2963DECAN   C929619   5.748   5.792   8.867  0.4963 -0.2880 -0.2301
 2963DECAN  C1029620   5.723   5.927   8.938  0.5439 -0.3238 -0.1450
 2964DECAN   C129621   1.668   6.813   6.786 -0.2000 -0.7083  0.2410
 2964DECAN   C229622   1.820   6.798   6.768 -0.1197  0.4594 -0.1746
 2964DECAN   C329623   1.872   6.859   6.637  0.2858  0.6705  0.0813
 2964DECAN   C429624   2.000   6.781   6.599 -0.0230  0.3715 -0.3577
 2964DECAN   C529625   2.061   6.823   6.464  0.1906  0.2717 -0.2910
 2964DECAN   C629626   2.040   6.973   6.437  0.2087  0.4168  0.4662
 2964DECAN   C729627   2.095   7.028   6.304  0.3906 -0.0533  0.3461
 2964DECAN   C829628   2.067   7.177   6.279  0.2699 -0.0651  0.4081
 2964DECAN   C929629   2.099   7.229   6.137  0.0758 -0.0601  0.3666
 2964DECAN  C1029630   2.091   7.382   6.123 -0.0130 -0.0784  0.2170
 2965DECAN   C129631   4.021   6.925   3.703  0.1127 -0.3065 -0.2705
 2965DECAN   C229632   3.872   6.909   3.737  0.1239 -0.4616 -0.2957
 2965DECAN   C329633   3.831   6.769   3.787 -0.0256 -0.3972 -0.2365
 2965DECAN   C429634   3.706   6.764   3.876  0.2558  0.4843  0.2170
 2965DECAN   C529635   3.657   6.622   3.910  0.0824  0.3238 -0.6961
 2965DECAN   C629636   3.541   6.606   4.010  0.5217  0.2439 -0.1954
 2965DECAN   C729637   3.412   6.678   3.966  0.3033 -0.1636 -0.2269
 2965DECAN   C829638   3.409   6.832   3.952  0.2925 -0.1703 -0.2942
 2965DECAN   C929639   3.279   6.857   3.874 -0.1038 -0.0524  0.3940
 2965DECAN  C1029640   3.244   7.007   3.875  0.7676  0.1568 -0.0067
 2966DECAN   C129641   7.685   1.110  10.400  0.2708 -0.0423  0.2145
 2966DECAN   C229642   7.735   1.100  10.255  0.0062 -0.6849  0.1640
 2966DECAN   C329643   7.885   1.124  10.230 -0.2205 -0.0446 -0.6105
 2966DECAN   C429644   7.943   1.036  10.118  0.1136  0.2565 -0.6780
 2966DECAN   C529645   7.884   0.894  10.110 -0.1974  0.3454 -0.0107
 2966DECAN   C629646   7.750   0.876  10.037 -0.1744 -0.1790  0.0678
 2966DECAN   C729647   7.755   0.854   9.885  0.1830  0.2215  0.0195
 2966DECAN   C829648   7.615   0.813   9.836  0.2078  0.2692 -0.0929
 2966DECAN   C929649   7.530   0.941   9.826 -0.0571  0.1216  0.2342
 2966DECAN  C1029650   7.386   0.908   9.780  0.2139  0.2353 -0.7169
 2967DECAN   C129651   2.463   9.406   9.676  0.1297  0.5479  0.3877
 2967DECAN   C229652   2.313   9.391   9.705  0.1119 -0.1869 -0.0471
 2967DECAN   C329653   2.267   9.462   9.834  0.6634 -0.4158  0.2767
 2967DECAN   C429654   2.115   9.456   9.856  0.6770 -0.2347  0.4189
 2967DECAN   C529655   2.078   9.507   9.997 -0.1100  0.0615  0.1091
 2967DECAN   C629656   1.928   9.490  10.029 -0.0367 -0.7976  0.0078
 2967DECAN   C729657   1.861   9.578  10.136 -0.0882 -0.8004 -0.0227
 2967DECAN   C829658   1.709   9.571  10.155 -0.1875  0.0443 -0.4494
 2967DECAN   C929659   1.630   9.650  10.050 -0.4913  0.6376  0.2145
 2967DECAN  C1029660   1.477   9.637  10.059 -0.4128 -0.5599 -0.0030
 2968DECAN   C129661   7.014   9.419  12.742  0.8012 -0.5702  0.5253
 2968DECAN   C229662   6.938   9.414  12.608  0.2131 -0.4020  0.8513
 2968DECAN   C329663   6.937   9.270  12.552 -0.0344  0.0617 -0.3648
 2968DECAN   C429664   7.081   9.218  12.531 -0.0722 -0.2333  0.0971
 2968DECAN   C529665   7.093   9.065  12.524 -0.3168 -0.2627  0.2725
 2968DECAN   C629666   7.245   9.040  12.526 -0.3225 -0.3044  0.2152
 2968DECAN   C729667   7.287   8.894  12.498 -0.3789 -0.2567 -0.1163
 2968DECAN   C829668   7.287   8.848  12.351  0.1714  0.1069 -0.2352
 2968DECAN   C929669   7.397   8.928  12.279  0.0241  0.6622  0.1520
 2968DECAN  C1029670   7.397   8.874  12.135  0.0480  1.4325 -0.1414
 2969DECAN   C129671   6.866   1.185  10.455 -0.3698  0.4043 -0.0824
 2969DECAN   C229672   6.926   1.057  10.515 -0.7219  0.4458  0.3636
 2969DECAN   C329673   6.875   0.928  10.446 -0.3455  0.2616  0.4241
 2969DECAN   C429674   6.887   0.929  10.293 -0.4870  0.4030  0.4140
 2969DECAN   C529675   6.844   0.794  10.232  0.1504  0.3021  0.1800
 2969DECAN   C629676   6.929   0.683  10.296 -0.3464 -0.3055 -0.1982
 2969DECAN   C729677   6.865   0.546  10.268  0.0407 -0.4442 -0.4111
 2969DECAN   C829678   6.943   0.424  10.320 -0.2220 -0.3592  0.1934
 2969DECAN   C929679   6.946   0.311  10.215 -0.2681 -0.1111 -0.0773
 2969DECAN  C1029680   7.018   0.181  10.254  0.0127  0.0554 -0.0400
 2970DECAN   C129681   6.032   5.803  14.990 -0.1154 -0.3854 -0.3219
 2970DECAN   C229682   5.920   5.705  14.951 -0.1670 -0.3812 -0.1805
 2970DECAN   C329683   5.786   5.738  15.020 -0.0529  0.0331 -0.1586
 2970DECAN   C429684   5.667   5.679  14.942  0.0831  0.1142 -0.4294
 2970DECAN   C529685   5.537   5.736  15.002  0.1294 -0.0519 -0.1666
 2970DECAN   C629686   5.416   5.669  14.935 -0.0157  0.0525 -0.0075
 2970DECAN   C729687   5.395   5.521  14.973 -0.0369 -0.0431 -0.3862
 2970DECAN   C829688   5.495   5.418  14.918  0.1625  0.0757 -0.2500
 2970DECAN   C929689   5.466   5.276  14.968  0.0421  0.2684  0.2281
 2970DECAN  C1029690   5.326   5.215  14.952  0.3454 -0.5108  0.4583
 2971DECAN   C129691   1.894   7.264   9.248  0.3195  0.2138 -0.0285
 2971DECAN   C229692   1.789   7.342   9.167 -0.1405 -0.2665  0.0963
 2971DECAN   C329693   1.726   7.262   9.052 -0.3020  0.1422 -0.1038
 2971DECAN   C429694   1.654   7.131   9.090  0.1758 -0.0814  0.0419
 2971DECAN   C529695   1.756   7.022   9.130  0.0942 -0.1856 -0.0355
 2971DECAN   C629696   1.720   6.874   9.154  0.3897 -0.2348  0.0965
 2971DECAN   C729697   1.828   6.766   9.134  0.4964 -0.0319 -0.4511
 2971DECAN   C829698   1.800   6.621   9.179  0.1905  0.2960  0.4461
 2971DECAN   C929699   1.893   6.506   9.135 -0.2359  0.0690  0.1334
 2971DECAN  C1029700   1.869   6.375   9.213  0.2825  0.0735  0.3039
 2972DECAN   C129701   6.534   4.031   5.444 -0.1189 -0.5722  0.3253
 2972DECAN   C229702   6.534   3.975   5.300 -0.2409  0.2084  0.0170
 2972DECAN   C329703   6.571   3.826   5.305  0.7502  0.4539  0.3265
 2972DECAN   C429704   6.626   3.785   5.167 -0.1295  0.0638  0.0846
 2972DECAN   C529705   6.691   3.646   5.158 -0.7408 -0.2025 -0.2806
 2972DECAN   C629706   6.768   3.625   5.027 -0.3738  0.2192 -0.1363
 2972DECAN   C729707   6.687   3.571   4.907 -0.4809  0.3886 -0.1409
 2972DECAN   C829708   6.772   3.539   4.783 -0.3688 -0.5532  0.1711
 2972DECAN   C929709   6.691   3.512   4.655 -0.1811  0.4493 -0.1629
 2972DECAN  C1029710   6.582   3.404   4.666 -0.0720  0.4194  0.7180
 2973DECAN   C129711   4.257   1.714   6.649 -0.4804  0.2943 -0.0896
 2973DECAN   C229712   4.276   1.562   6.667  0.1368  0.3153 -0.5217
 2973DECAN   C329713   4.420   1.533   6.712 -0.1518  0.0567  0.2644
 2973DECAN   C429714   4.467   1.390   6.678 -0.4924 -0.1190  0.5316
 2973DECAN   C529715   4.477   1.338   6.534  0.6628  0.7616  0.2785
 2973DECAN   C629716   4.530   1.193   6.534 -0.2377  0.4224  0.7311
 2973DECAN   C729717   4.659   1.164   6.613  0.3812  0.4617 -0.2417
 2973DECAN   C829718   4.673   1.010   6.614  0.8846  0.5054 -0.2987
 2973DECAN   C929719   4.773   0.949   6.714 -0.5079 -0.4949  0.5196
 2973DECAN  C1029720   4.802   0.798   6.697 -0.0073 -0.3319 -0.1281
 2974DECAN   C129721   9.366   1.797   4.925 -0.4474  0.4679  0.2885
 2974DECAN   C229722   9.314   1.829   5.067 -0.2467 -0.1227  0.4996
 2974DECAN   C329723   9.415   1.913   5.146 -0.0320 -0.1273  0.2331
 2974DECAN   C429724   9.410   2.064   5.117  0.6402 -0.1783 -0.1675
 2974DECAN   C529725   9.382   2.100   4.970  0.4033  0.0823 -0.0593
 2974DECAN   C629726   9.476   2.206   4.909 -0.1741  0.5141 -0.2136
 2974DECAN   C729727   9.624   2.166   4.888 -0.3852 -0.5730  0.2659
 2974DECAN   C829728   9.689   2.121   5.020  0.0956  0.5587  0.4320
 2974DECAN   C929729   9.831   2.062   5.026 -0.3249 -0.4451  0.6297
 2974DECAN  C1029730   9.855   1.940   4.935 -0.6282  0.0363 -0.0940
 2975DECAN   C129731  10.045   1.993  14.909 -0.1267  0.2290 -0.9057
 2975DECAN   C229732  10.123   2.081  14.810 -0.1933  0.8526 -0.4100
 2975DECAN   C329733  10.052   2.216  14.788 -1.3059  0.2695 -0.4150
 2975DECAN   C429734  10.089   2.285  14.656  0.8600  0.4493  0.2578
 2975DECAN   C529735  10.017   2.420  14.639 -0.2881 -0.2058 -0.1449
 2975DECAN   C629736  10.052   2.491  14.507  0.3016  0.1978  0.2254
 2975DECAN   C729737  10.013   2.640  14.497 -0.6768 -0.0738 -0.1605
 2975DECAN   C829738  10.037   2.708  14.361  0.0288  0.0973  0.0454
 2975DECAN   C929739  10.086   2.854  14.364 -0.0578  0.1171  0.4489
 2975DECAN  C1029740  10.125   2.880  14.218  0.2505 -0.1534  0.4796
 2976DECAN   C129741   9.023   3.768  14.876 -0.0844  0.2436  0.0031
 2976DECAN   C229742   8.887   3.695  14.871  0.0717 -0.0976  0.6768
 2976DECAN   C329743   8.768   3.789  14.898 -0.1531 -0.1526 -0.1071
 2976DECAN   C429744   8.639   3.744  14.827  0.0760 -0.4641 -0.3282
 2976DECAN   C529745   8.570   3.629  14.903  0.1278 -0.3601 -0.1231
 2976DECAN   C629746   8.666   3.510  14.892  0.2379 -0.2533 -0.3290
 2976DECAN   C729747   8.627   3.394  14.985 -0.6652  0.4864  0.2345
 2976DECAN   C829748   8.539   3.445  15.101 -0.8996 -0.1562  0.3429
 2976DECAN   C929749   8.405   3.507  15.060 -0.4914  0.3159 -0.2918
 2976DECAN  C1029750   8.289   3.471  15.154 -0.5832  0.7028 -0.2562
 2977DECAN   C129751   3.959   3.802   9.414  0.2507  0.4266 -0.1258
 2977DECAN   C229752   4.067   3.694   9.435 -0.1038  0.0694 -0.1249
 2977DECAN   C329753   4.197   3.704   9.354 -0.2029 -0.1268 -0.3101
 2977DECAN   C429754   4.290   3.589   9.397 -0.4016 -0.0974  0.2031
 2977DECAN   C529755   4.376   3.598   9.525  0.3817 -0.1459 -0.3103
 2977DECAN   C629756   4.427   3.464   9.581 -0.4674 -0.1178  0.5632
 2977DECAN   C729757   4.519   3.472   9.704  0.7558  0.1329 -0.3365
 2977DECAN   C829758   4.550   3.330   9.756 -0.2311  0.2019  0.4916
 2977DECAN   C929759   4.594   3.334   9.903 -0.6390 -0.2143  0.6287
 2977DECAN  C1029760   4.673   3.213   9.957  0.2642  0.2387  0.3523
 2978DECAN   C129761   3.668  10.978  14.865  0.3311 -0.1676  0.3805
 2978DECAN   C229762   3.514  10.977  14.865  0.3319 -0.3211  0.2753
 2978DECAN   C329763   3.465  10.832  14.873 -0.5165 -0.0108  0.8491
 2978DECAN   C429764   3.314  10.806  14.891 -0.5117 -0.4131  0.3395
 2978DECAN   C529765   3.285  10.657  14.866  0.0231 -0.3653 -0.5854
 2978DECAN   C629766   3.132  10.653  14.880  0.0941  0.1861  0.3991
 2978DECAN   C729767   3.086  10.507  14.864  0.2712  0.1729  0.0253
 2978DECAN   C829768   2.934  10.488  14.871  0.3101 -0.1904 -0.0911
 2978DECAN   C929769   2.911  10.341  14.831 -0.5799 -0.3540  0.9686
 2978DECAN  C1029770   2.761  10.314  14.810 -0.5123  0.2732 -0.3647
 2979DECAN   C129771   2.679   0.332  13.656  0.2137  0.1037  0.4313
 2979DECAN   C229772   2.562   0.260  13.726  0.1592  0.0145  0.2474
 2979DECAN   C329773   2.599   0.124  13.788  0.2070  0.0326  0.2592
 2979DECAN   C429774   2.505   0.063  13.894  0.1510 -0.1217  0.1200
 2979DECAN   C529775   2.544  11.163  13.932  0.5721  0.0726  0.4345
 2979DECAN   C629776   2.455  11.083  14.029 -0.5242  0.4950 -0.1998
 2979DECAN   C729777   2.503  10.938  14.048 -0.9037  0.2725 -0.9055
 2979DECAN   C829778   2.422  10.845  14.140  0.9693  0.2819  0.8284
 2979DECAN   C929779   2.479  10.702  14.142 -0.1783 -0.2241 -0.8588
 2979DECAN  C1029780   2.423  10.620  14.259 -0.1470  0.3070 -0.4720
 2980DECAN   C129781   4.773   4.401  14.225  0.1965 -0.3415  0.1576
 2980DECAN   C229782   4.880   4.486  14.153 -0.0729  0.1497  0.3327
 2980DECAN   C329783   5.002   4.399  14.116 -0.3889  0.1103 -0.6250
 2980DECAN   C429784   4.969   4.261  14.056  0.4618 -0.1752 -0.4407
 2980DECAN   C529785   4.918   4.146  14.146  0.2789  0.1687 -0.1013
 2980DECAN   C629786   5.014   4.091  14.252  0.8752  0.2478 -0.5877
 2980DECAN   C729787   5.143   4.019  14.206  0.7561 -0.0908 -0.4033
 2980DECAN   C829788   5.174   3.904  14.303 -0.4843 -0.1789 -0.0876
 2980DECAN   C929789   5.207   3.940  14.450 -0.2997 -0.3445 -0.0890
 2980DECAN  C1029790   5.093   4.026  14.508  0.1871  0.1806  0.0952
 2981DECAN   C129791   2.157   5.021   9.379 -0.1750  0.0045 -0.2803
 2981DECAN   C229792   2.170   4.931   9.503 -0.2163  0.1893 -0.1415
 2981DECAN   C329793   2.084   4.946   9.629  0.4306 -0.1857  0.3499
 2981DECAN   C429794   2.110   4.841   9.739 -0.2934 -0.3767  0.3458
 2981DECAN   C529795   2.016   4.850   9.861  0.1791  0.6104  0.6441
 2981DECAN   C629796   2.035   4.738   9.964  0.2644  0.2924  0.2842
 2981DECAN   C729797   1.958   4.605   9.950  0.0782  0.4540 -0.2359
 2981DECAN   C829798   1.814   4.608  10.004 -0.0990 -0.7994 -0.6081
 2981DECAN   C929799   1.750   4.468  10.011 -0.6224 -0.5634 -0.5610
 2981DECAN  C1029800   1.854   4.376  10.079 -0.3382  0.0230 -0.1970
 2982DECAN   C129801   8.200   7.492   6.482 -0.0659 -0.2154 -0.5268
 2982DECAN   C229802   8.048   7.469   6.474 -0.0924 -0.2415  0.0375
 2982DECAN   C329803   7.980   7.462   6.612  0.3479 -0.5329  0.2449
 2982DECAN   C429804   7.829   7.435   6.591  0.2813 -0.2058  0.2898
 2982DECAN   C529805   7.751   7.443   6.723  0.1012 -0.9422  0.2335
 2982DECAN   C629806   7.597   7.438   6.721  0.0924 -0.6787  0.1356
 2982DECAN   C729807   7.525   7.460   6.855  0.0090 -0.0127 -0.0179
 2982DECAN   C829808   7.371   7.458   6.846 -0.0098 -0.4788  0.3825
 2982DECAN   C929809   7.305   7.461   6.986 -0.0821  1.1878  0.3406
 2982DECAN  C1029810   7.156   7.423   6.974  0.3642 -0.3987 -0.5076
 2983DECAN   C129811   2.212   1.528  13.864 -0.9844 -0.1637  0.1315
 2983DECAN   C229812   2.141   1.658  13.907 -0.0171  0.5259 -0.3192
 2983DECAN   C329813   2.236   1.752  13.983 -0.0604  0.0258  0.3619
 2983DECAN   C429814   2.341   1.818  13.892 -0.2974 -0.3654 -0.2003
 2983DECAN   C529815   2.287   1.950  13.835 -0.0064 -0.3077 -0.3479
 2983DECAN   C629816   2.400   2.052  13.812 -0.5407  0.3994  0.1022
 2983DECAN   C729817   2.356   2.182  13.743 -0.1152  0.1639 -0.6308
 2983DECAN   C829818   2.480   2.270  13.719  0.1042  0.1406  0.3827
 2983DECAN   C929819   2.444   2.416  13.685 -0.2918  0.0572  0.4369
 2983DECAN  C1029820   2.366   2.480  13.802 -0.4952 -0.1840  0.4341
 2984DECAN   C129821   9.638   7.475  14.638 -0.0546  0.2023 -0.0404
 2984DECAN   C229822   9.499   7.467  14.704 -0.1798 -0.0306 -0.3251
 2984DECAN   C329823   9.381   7.448  14.608 -0.1873  0.1859 -0.3593
 2984DECAN   C429824   9.246   7.468  14.678  0.1547  0.4510  0.2271
 2984DECAN   C529825   9.222   7.374  14.798  0.1458  0.2616  0.0776
 2984DECAN   C629826   9.135   7.437  14.908  0.0598  0.2518  0.0144
 2984DECAN   C729827   8.988   7.457  14.866  0.1246 -0.4458 -0.5664
 2984DECAN   C829828   8.906   7.469  14.996  0.3031 -0.3601 -0.4612
 2984DECAN   C929829   8.754   7.465  14.969  0.2848 -0.2130 -0.3817
 2984DECAN  C1029830   8.669   7.461  15.097  0.2897  0.1040 -0.3663
 2985DECAN   C129831   9.123   4.201  14.273  0.1914 -0.7666  0.1599
 2985DECAN   C229832   9.038   4.103  14.190 -0.1898 -0.2182 -0.1053
 2985DECAN   C329833   9.124   3.994  14.124  0.3536  0.3411 -0.3361
 2985DECAN   C429834   9.051   3.889  14.039 -0.1287  0.2306  0.2056
 2985DECAN   C529835   9.130   3.758  14.019 -0.2776  0.1828 -0.0820
 2985DECAN   C629836   9.062   3.655  13.927  0.2705 -0.1318 -0.1388
 2985DECAN   C729837   9.152   3.531  13.908  0.0682 -0.2791 -0.1382
 2985DECAN   C829838   9.192   3.451  14.033 -0.1535 -0.1170  0.0366
 2985DECAN   C929839   9.078   3.400  14.124 -0.0792  0.2940  0.3689
 2985DECAN  C1029840   9.130   3.288  14.215 -0.0875  0.2473  0.3155
 2986DECAN   C129841   3.937   9.537  14.682 -0.1400  0.1068 -0.0766
 2986DECAN   C229842   3.836   9.488  14.577 -0.4010  0.1698  0.1452
 2986DECAN   C329843   3.700   9.459  14.643 -0.2305  0.1474  0.4886
 2986DECAN   C429844   3.597   9.390  14.552 -0.4907  0.3040  0.6619
 2986DECAN   C529845   3.486   9.319  14.632 -0.0688 -0.5622  0.4906
 2986DECAN   C629846   3.395   9.246  14.530  0.0471  0.2275 -0.1886
 2986DECAN   C729847   3.265   9.196  14.595  0.3187 -0.2336  0.0047
 2986DECAN   C829848   3.166   9.138  14.492 -0.1922 -0.0599  0.3980
 2986DECAN   C929849   3.059   9.047  14.556 -0.1682 -0.2594  0.1558
 2986DECAN  C1029850   2.936   9.017  14.469 -0.2197  0.1083  0.1040
 2987DECAN   C129851   8.638   5.559   5.544  0.2215  0.0031  0.3287
 2987DECAN   C229852   8.784   5.567   5.593  0.3251  0.4157 -0.0416
 2987DECAN   C329853   8.808   5.512   5.735 -0.2868  0.1023 -0.0534
 2987DECAN   C429854   8.785   5.361   5.751  0.3510 -0.0104 -0.1930
 2987DECAN   C529855   8.805   5.343   5.903 -0.2435 -0.1175 -0.1254
 2987DECAN   C629856   8.779   5.198   5.949 -0.3675 -0.0634 -0.0240
 2987DECAN   C729857   8.828   5.176   6.093 -0.0755  0.1209 -0.0932
 2987DECAN   C829858   8.821   5.034   6.151  0.0831  0.2549  0.2599
 2987DECAN   C929859   8.678   4.988   6.188  0.2366 -0.2624  0.2197
 2987DECAN  C1029860   8.591   5.087   6.267  0.2992 -0.1373  0.1314
 2988DECAN   C129861   4.529   3.044   8.888  0.3358 -0.7869  0.4693
 2988DECAN   C229862   4.394   3.056   8.962  0.3938  0.1482  0.4322
 2988DECAN   C329863   4.316   3.185   8.930 -0.2932 -0.2852  0.3372
 2988DECAN   C429864   4.196   3.197   9.025 -0.2494  0.4418  0.3055
 2988DECAN   C529865   4.225   3.187   9.176 -0.0580  0.1898  0.2521
 2988DECAN   C629866   4.103   3.166   9.268 -0.1537  0.7077  0.2487
 2988DECAN   C729867   4.134   3.151   9.418  0.2522 -0.4696  0.0649
 2988DECAN   C829868   4.027   3.127   9.527  0.0477 -0.4628 -0.1320
 2988DECAN   C929869   4.095   3.119   9.665  0.5216  0.0897 -0.3259
 2988DECAN  C1029870   4.198   3.231   9.688  0.4831  0.1184 -0.2907
 2989DECAN   C129871   5.484   7.957  10.653  0.2279  0.2617  0.6959
 2989DECAN   C229872   5.383   8.068  10.619  0.7849  0.4050 -0.5267
 2989DECAN   C329873   5.443   8.199  10.562 -0.0572  0.8058 -0.5040
 2989DECAN   C429874   5.334   8.308  10.562 -0.5804  0.2866 -0.4883
 2989DECAN   C529875   5.276   8.327  10.704  0.1137  0.2770 -0.1972
 2989DECAN   C629876   5.136   8.391  10.699 -0.1770 -0.3751 -0.5868
 2989DECAN   C729877   5.089   8.416  10.844 -0.1091 -0.1191 -0.6086
 2989DECAN   C829878   4.971   8.514  10.862  0.1657  0.1459 -0.2378
 2989DECAN   C929879   4.847   8.489  10.775  0.1477  0.0742 -0.1911
 2989DECAN  C1029880   4.719   8.557  10.826  0.3864 -0.0522  0.5786
 2990DECAN   C129881  10.968   4.873  10.715  0.1747  0.3063  0.2269
 2990DECAN   C229882  11.058   4.999  10.718  0.2428  0.2552  0.3525
 2990DECAN   C329883  11.180   4.957  10.801  0.3887 -0.1926 -0.0839
 2990DECAN   C429884  11.171   4.987  10.952  0.0082 -0.0226 -0.1416
 2990DECAN   C529885  11.166   5.139  10.977  0.0083 -0.0403 -0.0355
 2990DECAN   C629886  11.194   5.190  11.120  0.1672 -0.2976  0.0273
 2990DECAN   C729887  11.085   5.163  11.224  0.3462  0.1347  0.3287
 2990DECAN   C829888  11.107   5.218  11.366  0.4292 -0.5369  0.5796
 2990DECAN   C929889  10.985   5.209  11.459 -0.0792 -0.0795 -0.0398
 2990DECAN  C1029890  10.863   5.280  11.396  0.1450  0.0167 -0.3677
 2991DECAN   C129891   8.651   6.549  10.425 -0.4148  0.3277  0.2343
 2991DECAN   C229892   8.678   6.436  10.525 -0.3766  0.0176 -0.1226
 2991DECAN   C329893   8.800   6.444  10.619 -0.6439 -0.0602  0.2374
 2991DECAN   C429894   8.810   6.338  10.730 -0.1389 -0.0625  0.1940
 2991DECAN   C529895   8.954   6.331  10.784  0.0035  0.0292 -0.1701
 2991DECAN   C629896   9.068   6.308  10.683  0.0621 -0.3875 -0.0141
 2991DECAN   C729897   9.200   6.277  10.754  0.1600  0.0074 -0.0208
 2991DECAN   C829898   9.224   6.151  10.839  0.2817 -0.1501 -0.2888
 2991DECAN   C929899   9.369   6.142  10.891  0.0515 -0.1680  0.3556
 2991DECAN  C1029900   9.413   6.017  10.970 -0.0284 -0.1609  0.4116
 2992DECAN   C129901   2.076   6.489  14.414 -0.0325 -0.3148 -0.7006
 2992DECAN   C229902   2.068   6.398  14.538 -0.3680  0.1591 -0.3641
 2992DECAN   C329903   2.143   6.459  14.658  0.0839  0.0918 -0.6098
 2992DECAN   C429904   2.292   6.464  14.617  0.4973 -0.1620  0.8040
 2992DECAN   C529905   2.392   6.518  14.720  0.4107  0.4071  0.5937
 2992DECAN   C629906   2.525   6.534  14.643  0.0600  1.0794  0.1158
 2992DECAN   C729907   2.651   6.484  14.716 -0.1382  0.5108  0.0773
 2992DECAN   C829908   2.784   6.484  14.637 -0.2796 -0.0891 -0.1674
 2992DECAN   C929909   2.906   6.452  14.726 -0.3775  0.4051  0.1500
 2992DECAN  C1029910   3.035   6.420  14.648 -0.3628  0.1146  0.2935
 2993DECAN   C129911   9.183   4.783  15.099  0.7459  0.2574  0.2563
 2993DECAN   C229912   9.283   4.666  15.099 -0.1534 -0.5361  0.1029
 2993DECAN   C329913   9.357   4.658  14.964 -0.7282 -0.2480 -0.2307
 2993DECAN   C429914   9.472   4.557  14.975 -0.3766  0.1206 -0.4955
 2993DECAN   C529915   9.430   4.417  15.025 -0.1163  0.1278 -0.2503
 2993DECAN   C629916   9.554   4.328  15.043 -0.1255  0.0108 -0.7384
 2993DECAN   C729917   9.528   4.183  15.087 -0.1765 -0.0645 -1.0131
 2993DECAN   C829918   9.644   4.085  15.113 -0.3317 -0.1314 -0.5534
 2993DECAN   C929919   9.616   3.934  15.115  0.0934 -0.2103 -0.4697
 2993DECAN  C1029920   9.733   3.856  15.179  0.0785  0.4008  0.3141
 2994DECAN   C129921   7.351   5.127  11.399 -0.2105 -0.5146 -0.9767
 2994DECAN   C229922   7.372   5.177  11.255 -0.8327  0.3559 -0.7709
 2994DECAN   C329923   7.456   5.081  11.170 -0.2837  0.2386 -0.1058
 2994DECAN   C429924   7.464   5.147  11.031  0.9781  0.3172 -0.0109
 2994DECAN   C529925   7.563   5.069  10.943  0.6675 -0.1247  0.0227
 2994DECAN   C629926   7.586   5.150  10.814  0.3820  0.1014  0.1129
 2994DECAN   C729927   7.707   5.105  10.730 -0.0610 -0.4423 -0.2431
 2994DECAN   C829928   7.742   5.211  10.624 -0.2177  0.1975  0.3328
 2994DECAN   C929929   7.838   5.162  10.514 -0.4229  0.1329  0.1811
 2994DECAN  C1029930   7.869   5.262  10.402  0.4467 -0.3553 -0.0245
 2995DECAN   C129931   5.996   0.505   7.771 -0.0941 -0.0676  0.0696
 2995DECAN   C229932   6.057   0.542   7.907 -0.3929 -0.0042  0.1892
 2995DECAN   C329933   6.105   0.687   7.927 -0.1321 -0.0148 -0.3547
 2995DECAN   C429934   6.203   0.756   7.830  0.0001  0.2998 -0.0008
 2995DECAN   C529935   6.337   0.685   7.802 -0.2484  0.0519 -0.5859
 2995DECAN   C629936   6.437   0.770   7.722  0.4000  0.3693  0.5391
 2995DECAN   C729937   6.560   0.690   7.674 -0.1824 -0.2581  0.0741
 2995DECAN   C829938   6.547   0.577   7.570 -0.7349  0.3288 -0.4921
 2995DECAN   C929939   6.460   0.462   7.624 -0.2569  0.2485  0.1081
 2995DECAN  C1029940   6.413   0.359   7.520  0.8569  0.1587 -0.3201
 2996DECAN   C129941   7.411   6.223  12.184 -0.7629  0.4879 -0.2071
 2996DECAN   C229942   7.391   6.202  12.335 -0.7210  0.6206 -0.1822
 2996DECAN   C329943   7.295   6.085  12.362 -0.0022  0.0599 -0.0083
 2996DECAN   C429944   7.175   6.073  12.266  0.2172 -0.6120 -0.2052
 2996DECAN   C529945   7.073   5.971  12.320 -0.0368  0.0026  0.4908
 2996DECAN   C629946   6.942   5.961  12.240  0.3135 -0.3428 -0.0442
 2996DECAN   C729947   6.859   5.834  12.264  0.0367 -0.2230 -0.3475
 2996DECAN   C829948   6.939   5.703  12.259 -0.3979 -0.4926 -0.3213
 2996DECAN   C929949   7.001   5.684  12.119  0.5197 -0.3451  0.0562
 2996DECAN  C1029950   7.018   5.533  12.094 -0.5246 -0.5395  0.4680
 2997DECAN   C129951   5.794   3.780   5.832 -0.2840 -0.0620  0.1496
 2997DECAN   C229952   5.778   3.694   5.959 -0.3625 -0.2800 -0.0069
 2997DECAN   C329953   5.672   3.762   6.048 -0.2423  0.4663 -0.4208
 2997DECAN   C429954   5.609   3.678   6.162 -0.0334  0.0404 -0.6154
 2997DECAN   C529955   5.527   3.558   6.111 -0.1836 -0.1349  0.0335
 2997DECAN   C629956   5.500   3.453   6.219  0.2295 -0.2855 -0.0067
 2997DECAN   C729957   5.626   3.377   6.265  0.5929  0.1035 -0.3565
 2997DECAN   C829958   5.723   3.477   6.329  0.7937  0.1634 -0.7495
 2997DECAN   C929959   5.864   3.420   6.353  0.4910 -0.3119 -0.0477
 2997DECAN  C1029960   5.929   3.342   6.237  0.3552 -0.3477 -0.0996
 2998DECAN   C129961   5.840   6.717   9.418  0.1257 -0.3415 -0.0553
 2998DECAN   C229962   5.918   6.787   9.305 -0.1897  0.4229  0.1939
 2998DECAN   C329963   5.990   6.695   9.205 -0.5038  0.3892 -0.0016
 2998DECAN   C429964   6.037   6.743   9.067 -0.1254  0.3582  0.1147
 2998DECAN   C529965   6.143   6.854   9.060 -0.1506  0.3691 -0.1044
 2998DECAN   C629966   6.188   6.873   8.914 -0.1075  0.2633 -0.1055
 2998DECAN   C729967   6.289   6.987   8.893  0.4561 -0.1842  0.1315
 2998DECAN   C829968   6.335   7.014   8.749 -0.3171  0.0022 -0.0865
 2998DECAN   C929969   6.401   7.147   8.707  0.1713 -0.2727 -0.2041
 2998DECAN  C1029970   6.490   7.143   8.582  0.2573  0.4055 -0.1679
 2999DECAN   C129971   9.033   6.216   7.188  0.2842 -0.4120  0.2612
 2999DECAN   C229972   8.915   6.279   7.264  0.0269 -0.2317 -0.2903
 2999DECAN   C329973   8.956   6.405   7.341 -0.9295 -0.3944  0.5138
 2999DECAN   C429974   9.055   6.366   7.453 -0.1822 -0.0386 -0.0072
 2999DECAN   C529975   9.134   6.482   7.515  0.2552 -0.3574  0.0336
 2999DECAN   C629976   9.238   6.441   7.621  0.1967  0.0370  0.2433
 2999DECAN   C729977   9.329   6.559   7.664  0.1367  0.1641  0.0199
 2999DECAN   C829978   9.404   6.550   7.797 -0.7466  0.2399  0.5321
 2999DECAN   C929979   9.476   6.677   7.845  0.0255 -0.1092  0.3186
 2999DECAN  C1029980   9.392   6.806   7.851  0.2824  0.0794 -0.0719
 3000DECAN   C129981   7.058   6.800   8.147 -0.3166 -0.3444  0.8952
 3000DECAN   C229982   7.185   6.727   8.193  0.0038 -0.4278 -0.0890
 3000DECAN   C329983   7.266   6.645   8.092  0.1831  0.1157 -0.3909
 3000DECAN   C429984   7.387   6.572   8.155 -0.0178 -0.1870 -0.3531
 3000DECAN   C529985   7.507   6.536   8.065  0.5473 -0.1552  0.3772
 3000DECAN   C629986   7.591   6.651   8.009  0.0806  0.1436  0.2823
 3000DECAN   C729987   7.724   6.631   7.934 -0.1893  0.3916 -0.2656
 3000DECAN   C829988   7.830   6.741   7.911  0.2775  0.1828  0.8610
 3000DECAN   C929989   7.929   6.715   7.797 -0.4306  0.6599  0.1322
 3000DECAN  C1029990   8.002   6.580   7.812 -0.1518  0.7861 -0.0739
 3001DECAN   C129991   2.569   4.371  14.680 -0.1625  0.1029  1.3946
 3001DECAN   C229992   2.512   4.228  14.675 -0.4419  0.2441 -0.1667
 3001DECAN   C329993   2.382   4.217  14.594 -0.4024 -0.1880 -0.1727
 3001DECAN   C429994   2.253   4.257  14.667 -0.3323 -0.2964  0.0102
 3001DECAN   C529995   2.248   4.408  14.698 -0.2989 -0.2327 -0.2880
 3001DECAN   C629996   2.108   4.444  14.750  0.1253  0.0263  0.7112
 3001DECAN   C729997   2.093   4.597  14.764 -0.6628  0.0237  0.0172
 3001DECAN   C829998   2.058   4.663  14.630 -0.3643  0.5479  0.1940
 3001DECAN   C929999   2.051   4.816  14.648 -0.1594  0.5603  0.1728
 3001DECAN  C1030000   1.997   4.892  14.526 -0.0464  0.5334  0.1051
 3002DECAN   C130001   5.484   0.019  14.715  0.3074  0.1542 -0.5384
 3002DECAN   C230002   5.588   0.110  14.784 -0.1629  0.4703 -0.2378
 3002DECAN   C330003   5.685   0.161  14.676 -0.2715  0.1851 -0.4731
 3002DECAN   C430004   5.744   0.296  14.723  0.0511  0.0249 -0.4142
 3002DECAN   C530005   5.856   0.359  14.638  0.5182  0.1476  0.2839
 3002DECAN   C630006   5.977   0.268  14.612  0.4777  0.1762 -0.0064
 3002DECAN   C730007   5.940   0.158  14.511  0.3790  0.0980  0.1138
 3002DECAN   C830008   6.026   0.033  14.486  0.3089  0.1225 -0.2580
 3002DECAN   C930009   6.005  11.216  14.346 -0.4163  0.3718 -0.2609
 3002DECAN  C1030010   6.071   0.051  14.231  0.0954  0.6300  0.2068
 3003DECAN   C130011   1.842   9.618  15.087 -0.0129  0.2311 -0.4569
 3003DECAN   C230012   1.751   9.494  15.089 -0.0563  0.2645 -0.3969
 3003DECAN   C330013   1.632   9.506  14.992 -0.5599  0.0141  0.1770
 3003DECAN   C430014   1.522   9.403  15.023 -0.3996 -0.3355 -0.3978
 3003DECAN   C530015   1.420   9.386  14.909 -0.5911  0.4977 -0.3574
 3003DECAN   C630016   1.477   9.353  14.770  0.4572 -0.1179  0.2037
 3003DECAN   C730017   1.584   9.450  14.716  0.3103 -0.0221  0.0865
 3003DECAN   C830018   1.626   9.418  14.571 -0.0841  0.2488 -0.0918
 3003DECAN   C930019   1.690   9.542  14.506 -0.2393  0.0795 -0.5677
 3003DECAN  C1030020   1.596   9.663  14.495 -0.6652 -0.1533  0.4423
 3004DECAN   C130021   9.167   4.269   6.182  0.0981 -0.1976 -0.0556
 3004DECAN   C230022   9.106   4.269   6.040 -0.5677  0.3514  0.2292
 3004DECAN   C330023   9.109   4.410   5.978 -0.3817 -0.0725 -0.7281
 3004DECAN   C430024   9.026   4.519   6.047  0.2953  0.1890 -0.3140
 3004DECAN   C530025   9.085   4.574   6.178  0.2255  0.2420 -0.3048
 3004DECAN   C630026   8.982   4.658   6.257 -0.4415 -0.1861 -0.7091
 3004DECAN   C730027   9.052   4.704   6.386 -0.1814 -0.7914 -0.6295
 3004DECAN   C830028   8.946   4.756   6.485  0.9646  0.1548  0.1345
 3004DECAN   C930029   8.989   4.794   6.628 -0.4099  0.3784  0.4991
 3004DECAN  C1030030   8.884   4.871   6.711 -0.4789  0.5221  0.2803
 3005DECAN   C130031   2.543   6.926  14.167  0.4836 -0.2927 -0.5245
 3005DECAN   C230032   2.479   6.838  14.276  0.4896  0.2871 -0.0520
 3005DECAN   C330033   2.354   6.761  14.230  0.8348  0.2178 -0.8908
 3005DECAN   C430034   2.229   6.847  14.201  0.1315 -0.2389  0.6789
 3005DECAN   C530035   2.107   6.765  14.157  0.1481  0.2653 -0.3380
 3005DECAN   C630036   1.981   6.851  14.137  0.0141  0.2346  0.3482
 3005DECAN   C730037   1.897   6.860  14.266 -0.5288 -1.0604  0.0937
 3005DECAN   C830038   1.797   6.975  14.247  0.3034 -0.2933  0.2983
 3005DECAN   C930039   1.703   6.975  14.369  0.5149  0.4298  0.4664
 3005DECAN  C1030040   1.609   6.853  14.373  0.7513  0.2436  0.3421
 3006DECAN   C130041   4.239   4.651  13.826 -0.4268  0.6472  0.2857
 3006DECAN   C230042   4.265   4.655  13.675  0.1133  0.0216  0.3538
 3006DECAN   C330043   4.408   4.619  13.631 -0.0360 -0.0872 -0.0523
 3006DECAN   C430044   4.435   4.645  13.482  0.1622 -0.1182 -0.0222
 3006DECAN   C530045   4.355   4.562  13.379 -0.3188  0.0985  0.1743
 3006DECAN   C630046   4.206   4.593  13.355 -0.2740  0.3478  0.2153
 3006DECAN   C730047   4.151   4.594  13.211  0.1170  1.0261  0.0659
 3006DECAN   C830048   3.998   4.593  13.196  0.1256 -0.1443 -0.0542
 3006DECAN   C930049   3.948   4.557  13.055 -0.4102  0.0576  0.0782
 3006DECAN  C1030050   4.005   4.649  12.945  0.4234 -0.6885 -0.1255
 3007DECAN   C130051   7.478   9.215  14.046  0.0993 -0.1953  0.1657
 3007DECAN   C230052   7.578   9.131  13.964  0.1674  0.2512 -0.2180
 3007DECAN   C330053   7.717   9.195  13.943  0.2150  0.2075 -0.0384
 3007DECAN   C430054   7.812   9.113  13.854 -0.0479 -0.2263  0.0792
 3007DECAN   C530055   7.768   9.125  13.707  0.3708 -0.1023 -0.0370
 3007DECAN   C630056   7.621   9.100  13.671  0.4276  0.0599 -0.3817
 3007DECAN   C730057   7.602   9.142  13.524 -0.5477  0.0066 -0.2832
 3007DECAN   C830058   7.507   9.050  13.445 -0.2243 -0.2829 -0.3422
 3007DECAN   C930059   7.431   9.124  13.333  0.5617  0.0872 -0.6351
 3007DECAN  C1030060   7.337   9.032  13.253  0.1955 -0.3172  0.2444
 3008DECAN   C130061   4.917   4.940   5.655 -0.4530  0.1846  0.1518
 3008DECAN   C230062   5.007   4.968   5.533  0.1970 -0.3535  0.4999
 3008DECAN   C330063   5.149   5.020   5.558  0.0759  0.0770  0.3036
 3008DECAN   C430064   5.232   5.044   5.430 -0.3940  0.5139  0.0802
 3008DECAN   C530065   5.193   5.171   5.353 -0.2194  0.2786 -0.3940
 3008DECAN   C630066   5.273   5.187   5.222  0.5887 -0.8550 -0.0496
 3008DECAN   C730067   5.230   5.075   5.125 -0.9338 -0.0367 -0.3566
 3008DECAN   C830068   5.323   5.095   5.004 -0.0752  0.8427  0.4307
 3008DECAN   C930069   5.471   5.117   5.044  0.2900 -0.7616  0.0134
 3008DECAN  C1030070   5.562   5.137   4.922 -0.4790 -0.5372 -0.5367
 3009DECAN   C130071   4.804   3.852  15.136 -0.0351 -0.1471 -0.5192
 3009DECAN   C230072   4.918   3.831  15.034  0.2943 -0.7229 -0.0402
 3009DECAN   C330073   5.059   3.853  15.091  0.0729  0.4014  0.1144
 3009DECAN   C430074   5.182   3.829  15.001  0.2490  0.0031  0.4577
 3009DECAN   C530075   5.308   3.849  15.087  0.2373 -0.2955  0.5469
 3009DECAN   C630076   5.437   3.852  15.004  0.0408 -0.3287  0.2399
 3009DECAN   C730077   5.421   3.964  14.899  0.0758 -0.2692  0.2982
 3009DECAN   C830078   5.528   3.928  14.795 -0.0842  0.4758 -0.1277
 3009DECAN   C930079   5.543   4.032  14.682 -0.2801 -0.1414 -0.7251
 3009DECAN  C1030080   5.672   4.017  14.599  0.1997 -0.4918  0.0735
 3010DECAN   C130081   8.423   9.490  14.954  0.0266  0.7554  0.0754
 3010DECAN   C230082   8.432   9.595  14.842 -0.3112  0.7049 -0.0016
 3010DECAN   C330083   8.385   9.524  14.713  0.5417  0.8502 -0.4005
 3010DECAN   C430084   8.234   9.494  14.712  0.6587  0.2369 -0.2015
 3010DECAN   C530085   8.204   9.389  14.603  0.4873 -0.3163  0.3699
 3010DECAN   C630086   8.051   9.372  14.598  0.4432  0.2798 -0.5222
 3010DECAN   C730087   7.981   9.306  14.718  0.6091  0.3340 -0.3953
 3010DECAN   C830088   8.014   9.158  14.747 -0.0652  0.2591  0.0019
 3010DECAN   C930089   7.982   9.112  14.891 -0.7123  0.3275 -0.1177
 3010DECAN  C1030090   8.025   8.965  14.905 -0.1300  0.5514  0.4833
 3011DECAN   C130091   9.172   1.044   8.338 -0.1156 -0.4625  0.1071
 3011DECAN   C230092   9.298   1.123   8.380 -0.4040  0.0784 -0.0377
 3011DECAN   C330093   9.378   1.067   8.499  0.3379  0.4665 -0.3533
 3011DECAN   C430094   9.516   1.131   8.525  0.5789  0.1358 -0.8017
 3011DECAN   C530095   9.573   1.084   8.659 -0.3367  0.3227 -0.3364
 3011DECAN   C630096   9.711   1.139   8.701 -0.4330  0.1403  0.2250
 3011DECAN   C730097   9.736   1.287   8.670  0.1776 -0.1513 -0.6944
 3011DECAN   C830098   9.876   1.331   8.717  0.0703 -0.5367 -0.0099
 3011DECAN   C930099   9.905   1.482   8.705 -0.1279 -0.4203  0.8533
 3011DECAN  C1030100  10.046   1.530   8.742 -0.0229 -0.0652  0.0177
 3012DECAN   C130101   2.852   3.100   6.112  0.3839 -0.1500 -0.3140
 3012DECAN   C230102   2.906   3.104   5.968  0.2216 -0.6853 -0.3901
 3012DECAN   C330103   2.805   3.053   5.863  0.3956  0.1554 -0.9807
 3012DECAN   C430104   2.689   3.136   5.807 -0.0902  0.1947  0.0588
 3012DECAN   C530105   2.589   3.071   5.709 -0.1215  0.3556 -0.0170
 3012DECAN   C630106   2.501   3.183   5.653 -0.3836  0.6511  0.9733
 3012DECAN   C730107   2.570   3.320   5.645  0.3147  0.2641  0.2793
 3012DECAN   C830108   2.696   3.311   5.556  0.3465 -0.5873  0.4069
 3012DECAN   C930109   2.674   3.273   5.409  0.5408  0.1215  0.1910
 3012DECAN  C1030110   2.587   3.367   5.323 -0.1224 -0.5007  0.1725
 3013DECAN   C130111   1.654  10.348   9.813  0.1977  0.3072  0.7335
 3013DECAN   C230112   1.541  10.297   9.904 -0.4049 -0.5126 -0.4539
 3013DECAN   C330113   1.496  10.154   9.866  0.0020 -0.6199 -0.5318
 3013DECAN   C430114   1.350  10.143   9.911 -0.0194 -0.1485 -0.4786
 3013DECAN   C530115   1.272  10.022   9.855 -0.1952 -0.1880 -0.1557
 3013DECAN   C630116   1.120  10.010   9.876 -0.3098  0.4924 -0.5726
 3013DECAN   C730117   1.060   9.873   9.842  0.2845  0.0731  0.0574
 3013DECAN   C830118   1.112   9.753   9.924 -0.3581  0.2332  0.7092
 3013DECAN   C930119   1.037   9.620   9.904  0.0955  0.1043 -0.1903
 3013DECAN  C1030120   1.090   9.485   9.955 -0.3117  0.1532  0.3685
 3014DECAN   C130121   5.403   9.991  14.162 -0.8630  0.1663 -0.3498
 3014DECAN   C230122   5.406  10.123  14.083  0.2756  0.3013 -0.0992
 3014DECAN   C330123   5.352  10.252  14.148 -0.4390  0.0215 -0.1330
 3014DECAN   C430124   5.357  10.369  14.049  0.1905 -0.0017 -0.1312
 3014DECAN   C530125   5.342  10.512  14.105 -0.1896 -0.0487 -0.1081
 3014DECAN   C630126   5.381  10.626  14.009 -0.6982 -0.4140 -0.7599
 3014DECAN   C730127   5.356  10.763  14.075  0.5793 -0.4914 -0.0984
 3014DECAN   C830128   5.354  10.889  13.987 -0.4109 -0.2795  0.2199
 3014DECAN   C930129   5.454  10.884  13.870 -0.1596  0.2263  0.4080
 3014DECAN  C1030130   5.491  11.024  13.819 -0.5411 -0.0874 -0.7617
 3015DECAN   C130131   7.243   8.379   5.435 -0.2159  0.5402 -0.2301
 3015DECAN   C230132   7.387   8.430   5.415  0.3747 -0.9481  0.1110
 3015DECAN   C330133   7.448   8.419   5.274 -0.4380  0.3980 -0.3669
 3015DECAN   C430134   7.577   8.501   5.255 -0.1009 -0.0761 -0.1322
 3015DECAN   C530135   7.681   8.468   5.364 -0.1319 -0.2919 -0.1667
 3015DECAN   C630136   7.814   8.546   5.350 -0.3187  0.0229 -0.1927
 3015DECAN   C730137   7.796   8.688   5.407  0.1827 -0.1142  0.3231
 3015DECAN   C830138   7.796   8.684   5.560  0.1329  0.0565  0.3274
 3015DECAN   C930139   7.680   8.608   5.627  0.1861 -0.2123  0.1137
 3015DECAN  C1030140   7.699   8.594   5.780  0.0803 -0.0613  0.1410
 3016DECAN   C130141   2.910   3.832  10.725 -0.0362  0.0542  0.4404
 3016DECAN   C230142   2.817   3.730  10.793 -0.0797 -0.3019 -0.1410
 3016DECAN   C330143   2.734   3.777  10.915  0.6002 -0.1292  0.2618
 3016DECAN   C430144   2.674   3.678  11.016  0.1175 -0.0267  0.0769
 3016DECAN   C530145   2.777   3.589  11.088  0.2528  0.0257 -0.0517
 3016DECAN   C630146   2.853   3.663  11.200  0.3800 -0.1045 -0.0518
 3016DECAN   C730147   2.968   3.569  11.241  0.1374 -0.0813  0.6993
 3016DECAN   C830148   3.059   3.631  11.349  0.6483 -0.0502  0.2606
 3016DECAN   C930149   3.164   3.541  11.416  0.3474 -0.3143  0.3839
 3016DECAN  C1030150   3.087   3.440  11.503 -0.3213 -0.0589  0.0899
 3017DECAN   C130151   5.355   6.190   5.074  0.0609 -0.1510 -0.5678
 3017DECAN   C230152   5.269   6.302   5.135 -0.3963 -0.5017 -0.5587
 3017DECAN   C330153   5.118   6.274   5.137 -0.3263 -0.8681 -0.3419
 3017DECAN   C430154   5.039   6.388   5.204  0.7533  0.0759 -0.6544
 3017DECAN   C530155   5.069   6.525   5.141  0.1324  0.2823 -0.5103
 3017DECAN   C630156   4.992   6.638   5.212  0.3178  0.2674 -0.2844
 3017DECAN   C730157   5.012   6.770   5.137  0.0652 -0.0302 -0.8816
 3017DECAN   C830158   4.910   6.786   5.023 -0.0501  0.4769 -0.7084
 3017DECAN   C930159   4.923   6.695   4.899  0.2066  0.0799 -0.3901
 3017DECAN  C1030160   5.062   6.707   4.834  0.0257  0.6015 -0.6869
 3018DECAN   C130161   6.341   0.944  14.417  0.0292 -0.3869 -0.3731
 3018DECAN   C230162   6.475   0.889  14.469  0.1438 -0.1972 -0.4703
 3018DECAN   C330163   6.484   0.879  14.622 -0.1703  0.1848 -0.4238
 3018DECAN   C430164   6.623   0.855  14.686 -0.3981 -0.3670 -0.1213
 3018DECAN   C530165   6.617   0.783  14.821  0.1586 -0.1265  0.0345
 3018DECAN   C630166   6.742   0.799  14.910  0.2265 -0.7388  0.0573
 3018DECAN   C730167   6.866   0.757  14.830  0.0710  0.0968 -0.6368
 3018DECAN   C830168   6.989   0.771  14.922  0.2066 -0.6094 -0.7058
 3018DECAN   C930169   7.039   0.914  14.946 -0.3325 -0.5880  0.3471
 3018DECAN  C1030170   7.037   1.004  14.821 -0.0640 -0.6768  0.2774
 3019DECAN   C130171   3.242   8.335  15.127 -0.1024  0.1669  0.2562
 3019DECAN   C230172   3.322   8.237  15.038 -0.3704  0.5105 -0.3642
 3019DECAN   C330173   3.296   8.091  15.081 -0.2738  0.3164 -0.9550
 3019DECAN   C430174   3.401   7.989  15.034  0.2364  0.1187  0.5459
 3019DECAN   C530175   3.380   7.841  15.068 -0.0076  0.0008 -0.1021
 3019DECAN   C630176   3.250   7.772  15.021 -0.0808 -0.0638  0.1886
 3019DECAN   C730177   3.117   7.838  15.063  0.1129  0.0558  0.6197
 3019DECAN   C830178   3.009   7.773  14.975  0.4997  0.4413 -0.1614
 3019DECAN   C930179   3.017   7.619  14.984 -0.3692  0.3815 -0.3538
 3019DECAN  C1030180   3.137   7.545  14.923 -0.0503  0.3825  0.2678
 3020DECAN   C130181   4.832   0.826   8.781 -0.0693  0.1254  0.4891
 3020DECAN   C230182   4.870   0.943   8.688  0.0893 -0.4730 -0.2019
 3020DECAN   C330183   4.763   1.010   8.600  0.2447  0.1061  0.0499
 3020DECAN   C430184   4.818   1.084   8.477  0.0193 -0.0642 -0.1552
 3020DECAN   C530185   4.915   1.201   8.503 -0.4551  0.3181 -0.1044
 3020DECAN   C630186   4.969   1.265   8.374  0.0875 -0.1894 -0.1290
 3020DECAN   C730187   5.060   1.387   8.401  0.1979 -0.3210  0.0969
 3020DECAN   C830188   5.107   1.453   8.270 -0.4169  0.1711  0.1244
 3020DECAN   C930189   5.206   1.567   8.298 -0.2913  0.2026 -0.4347
 3020DECAN  C1030190   5.255   1.652   8.179  0.7495 -0.0535 -0.1955
 3021DECAN   C130191   9.353   6.781   4.189 -0.0962  0.5551  0.1054
 3021DECAN   C230192   9.499   6.765   4.236 -0.2266 -0.1232  0.2956
 3021DECAN   C330193   9.510   6.848   4.365 -0.5022 -0.2174  0.3796
 3021DECAN   C430194   9.656   6.859   4.412 -0.4162  0.0658  0.0583
 3021DECAN   C530195   9.712   6.724   4.461  0.0832 -0.2448 -1.3160
 3021DECAN   C630196   9.865   6.724   4.480 -0.0917 -0.4024  0.2364
 3021DECAN   C730197   9.914   6.839   4.570 -0.0936 -0.4113  0.2488
 3021DECAN   C830198  10.062   6.815   4.606 -0.0149 -0.0447  0.1693
 3021DECAN   C930199  10.128   6.924   4.693  0.5504  0.1726 -0.5191
 3021DECAN  C1030200  10.277   6.893   4.711  0.4678 -0.0496 -0.2264
 3022DECAN   C130201   9.943   8.337   5.672 -0.0645 -0.4634  0.6093
 3022DECAN   C230202   9.802   8.308   5.725 -0.4784 -0.4995 -0.4956
 3022DECAN   C330203   9.810   8.241   5.864 -0.2565  0.3752 -0.0779
 3022DECAN   C430204   9.680   8.201   5.935 -0.2434  0.2314 -0.1351
 3022DECAN   C530205   9.631   8.072   5.866  0.0607 -0.1564  0.3679
 3022DECAN   C630206   9.526   7.986   5.938 -0.7344 -0.2235 -0.8373
 3022DECAN   C730207   9.490   7.847   5.883 -0.5696 -0.7459  0.3299
 3022DECAN   C830208   9.621   7.766   5.880  0.0146  0.1985 -0.7294
 3022DECAN   C930209   9.668   7.718   6.019  0.4755  0.1171 -0.9125
 3022DECAN  C1030210   9.784   7.617   6.009  0.6534  0.2208  0.0089
 3023DECAN   C130211   7.479   2.703  15.013  1.1039  0.5778  0.6953
 3023DECAN   C230212   7.510   2.552  15.001 -0.0595  0.3836 -0.0626
 3023DECAN   C330213   7.407   2.472  14.919 -0.0185  0.2535  0.0123
 3023DECAN   C430214   7.449   2.328  14.886  0.4333  0.4276 -0.1805
 3023DECAN   C530215   7.333   2.256  14.816  0.2674  0.3638  0.1573
 3023DECAN   C630216   7.359   2.104  14.809  0.0403  0.3226  0.1905
 3023DECAN   C730217   7.397   2.048  14.948  0.4238  0.0677 -0.0160
 3023DECAN   C830218   7.413   1.895  14.949  0.0697  0.0305  0.1774
 3023DECAN   C930219   7.525   1.845  14.856  0.0799  0.3303  0.0273
 3023DECAN  C1030220   7.489   1.872  14.708 -0.1854 -0.4294 -0.0550
 3024DECAN   C130221   6.747   9.812  11.753  0.0494 -0.0907  0.1142
 3024DECAN   C230222   6.714   9.920  11.648  0.1802 -0.0601  0.1035
 3024DECAN   C330223   6.777  10.059  11.663 -0.6311  0.2998  0.2032
 3024DECAN   C430224   6.700  10.143  11.559 -0.2203 -0.0700 -0.4040
 3024DECAN   C530225   6.738  10.291  11.546 -0.1854 -0.0683 -0.2843
 3024DECAN   C630226   6.868  10.323  11.470  0.2481  0.5640  0.7070
 3024DECAN   C730227   6.899  10.473  11.453  0.3600  0.4344 -0.2860
 3024DECAN   C830228   6.993  10.532  11.560 -0.0329 -0.3638  0.5086
 3024DECAN   C930229   7.022  10.676  11.516 -0.0300 -0.4449  0.2468
 3024DECAN  C1030230   7.082  10.774  11.618 -0.3401 -0.5368  0.5194
 3025DECAN   C130231   1.346   4.950   7.266 -0.2338 -0.2524 -0.0128
 3025DECAN   C230232   1.361   5.044   7.387 -0.2686 -0.4546  0.1498
 3025DECAN   C330233   1.472   4.997   7.483  0.1399  0.1360 -0.0312
 3025DECAN   C430234   1.602   4.976   7.402  0.1865 -0.3720  0.1769
 3025DECAN   C530235   1.701   4.885   7.477  0.4657 -0.0596  0.1901
 3025DECAN   C630236   1.817   4.828   7.394  0.2816 -0.0679 -0.0613
 3025DECAN   C730237   1.760   4.711   7.312 -0.5209 -0.1099  0.5439
 3025DECAN   C830238   1.669   4.729   7.188 -0.2134 -0.2490  0.2967
 3025DECAN   C930239   1.746   4.806   7.080  0.1075  0.0672  0.7463
 3025DECAN  C1030240   1.647   4.875   6.984  0.2646 -0.4355  0.2172
 3026DECAN   C130241   9.360  10.099  14.981 -0.3024  0.3713 -0.0765
 3026DECAN   C230242   9.486  10.188  14.982  0.3491 -0.5342  0.3857
 3026DECAN   C330243   9.619  10.136  14.926  0.4988  0.1905  0.0562
 3026DECAN   C430244   9.725  10.247  14.908  0.1760  0.5352  0.2747
 3026DECAN   C530245   9.853  10.186  14.850 -0.2109  0.0794 -0.1110
 3026DECAN   C630246   9.844  10.142  14.703 -0.7347 -0.2385  0.0139
 3026DECAN   C730247   9.761  10.016  14.675  0.1550 -0.8830  0.2259
 3026DECAN   C830248   9.722   9.984  14.529  0.4170  0.2758 -0.1067
 3026DECAN   C930249   9.658  10.105  14.460 -0.2431 -0.0071  0.0017
 3026DECAN  C1030250   9.513  10.140  14.498  0.0436  0.8477  0.3452
 3027DECAN   C130251   6.256   0.676  11.389  0.3246  0.0372  0.2991
 3027DECAN   C230252   6.214   0.749  11.260  0.2717  0.0438  0.3196
 3027DECAN   C330253   6.238   0.678  11.126  0.0873 -0.0502  0.3376
 3027DECAN   C430254   6.240   0.771  11.004 -0.1368 -0.1113  0.2872
 3027DECAN   C530255   6.139   0.887  11.011  0.0720  0.0774  0.1877
 3027DECAN   C630256   6.137   1.001  10.907 -0.3719  0.2280  0.3576
 3027DECAN   C730257   6.033   1.107  10.950  0.1556  0.7928  0.2550
 3027DECAN   C830258   5.894   1.046  10.976  0.3668 -0.0161 -0.4534
 3027DECAN   C930259   5.828   1.126  11.090  0.0386 -0.7550 -0.1189
 3027DECAN  C1030260   5.785   1.266  11.043  0.4244 -0.7784 -0.5505
 3028DECAN   C130261   8.628   3.975  14.397  0.3413 -0.2292  0.4831
 3028DECAN   C230262   8.721   3.856  14.428  0.0472 -0.3631  0.8562
 3028DECAN   C330263   8.665   3.731  14.356  0.2323 -0.2030  0.4278
 3028DECAN   C430264   8.750   3.606  14.378  0.3115 -0.1775  0.2689
 3028DECAN   C530265   8.891   3.631  14.321  0.3866  0.0458  0.5481
 3028DECAN   C630266   8.969   3.713  14.425  0.1644  0.3893  0.4438
 3028DECAN   C730267   9.118   3.729  14.389  0.1658 -0.1909  0.1905
 3028DECAN   C830268   9.164   3.848  14.475  0.3278 -0.2012  0.1179
 3028DECAN   C930269   9.309   3.889  14.439  0.1725 -0.3058 -0.6582
 3028DECAN  C1030270   9.368   3.995  14.534 -0.4097 -0.3999 -0.1858
 3029DECAN   C130271   1.212   3.915  10.883  0.7105 -0.4479 -0.4334
 3029DECAN   C230272   1.327   3.990  10.952  0.0977  0.0264  0.0822
 3029DECAN   C330273   1.338   3.964  11.103  0.0307  0.1739  0.1124
 3029DECAN   C430274   1.346   3.812  11.127  0.1380  0.0742 -0.5395
 3029DECAN   C530275   1.227   3.728  11.076 -0.1187  0.3703 -0.4319
 3029DECAN   C630276   1.208   3.578  11.101  0.1851  0.3621 -0.2455
 3029DECAN   C730277   1.156   3.541  11.241 -0.1603  0.4243 -0.3570
 3029DECAN   C830278   1.264   3.575  11.345 -0.6083 -0.1054  0.2903
 3029DECAN   C930279   1.223   3.548  11.491 -0.4605 -0.3334  0.2906
 3029DECAN  C1030280   1.333   3.570  11.596  0.0185 -0.2465 -0.2258
 3030DECAN   C130281  10.735  10.122   7.044 -0.2470 -0.4054  0.2349
 3030DECAN   C230282  10.670  10.227   7.135 -0.0069 -0.3773  0.3755
 3030DECAN   C330283  10.545  10.299   7.082  0.4542  0.3461  0.2677
 3030DECAN   C430284  10.562  10.390   6.959  0.0340  0.2448  0.1342
 3030DECAN   C530285  10.419  10.423   6.911  0.0167 -0.1555 -0.0977
 3030DECAN   C630286  10.414  10.521   6.792 -0.0392 -0.0528 -0.0100
 3030DECAN   C730287  10.493  10.477   6.668  0.1339  0.3617 -0.0503
 3030DECAN   C830288  10.646  10.482   6.670  0.1572 -0.1524 -0.2780
 3030DECAN   C930289  10.703  10.625   6.674 -0.1319 -0.0415 -0.1013
 3030DECAN  C1030290  10.856  10.638   6.668 -0.1094 -0.5758 -0.7268
 3031DECAN   C130291   2.469   6.662   4.275  0.1355 -0.0399  0.0093
 3031DECAN   C230292   2.520   6.582   4.154 -0.0369 -0.1129 -0.0168
 3031DECAN   C330293   2.574   6.438   4.170  0.0137 -0.1171 -0.2271
 3031DECAN   C430294   2.577   6.365   4.035 -0.1694 -0.3211 -0.1205
 3031DECAN   C530295   2.572   6.211   4.046 -0.1937 -0.3072  0.0488
 3031DECAN   C630296   2.464   6.164   4.146 -0.2827  0.2199  0.2053
 3031DECAN   C730297   2.499   6.172   4.295 -0.4374  1.2195  0.1964
 3031DECAN   C830298   2.386   6.141   4.395 -0.0023  0.2173  0.3900
 3031DECAN   C930299   2.427   6.099   4.538  0.3786 -0.3967  0.1013
 3031DECAN  C1030300   2.308   6.048   4.622  0.0930  0.0913 -0.0048
 3032DECAN   C130301   4.168   6.376  10.835  0.0001 -0.3033 -0.6936
 3032DECAN   C230302   4.123   6.523  10.850  1.0798 -0.1245  1.0326
 3032DECAN   C330303   4.186   6.621  10.750  0.0920 -0.3183  0.2010
 3032DECAN   C430304   4.145   6.609  10.602  0.0400  0.0452  0.1865
 3032DECAN   C530305   4.191   6.719  10.504 -0.1747  0.1100  0.1602
 3032DECAN   C630306   4.130   6.692  10.366  0.0060 -0.5753  0.2116
 3032DECAN   C730307   4.133   6.806  10.261  0.1841 -0.0914  0.7378
 3032DECAN   C830308   4.273   6.864  10.231  0.1695 -0.1205  0.6161
 3032DECAN   C930309   4.379   6.773  10.165 -0.4336 -0.2074 -0.2621
 3032DECAN  C1030310   4.520   6.833  10.147 -0.4650 -0.2288 -0.5861
 3033DECAN   C130311   5.949   8.073  13.294 -0.2050 -0.2958  0.0914
 3033DECAN   C230312   6.011   8.214  13.302 -0.1897 -0.3058  0.1435
 3033DECAN   C330313   6.059   8.234  13.447  0.0194  0.6798 -0.0563
 3033DECAN   C430314   6.092   8.383  13.465  0.8162  0.4630  0.3082
 3033DECAN   C530315   6.160   8.440  13.339  0.2994 -0.4085 -0.3703
 3033DECAN   C630316   6.064   8.429  13.219  0.2601 -0.7202 -0.3110
 3033DECAN   C730317   6.121   8.474  13.083  0.4549  0.1587  0.0578
 3033DECAN   C830318   6.056   8.421  12.954 -0.1005 -0.0463  0.4173
 3033DECAN   C930319   6.063   8.517  12.834 -0.5478 -0.0727  0.3670
 3033DECAN  C1030320   5.967   8.634  12.859 -0.4225  0.0133  0.4474
 3034DECAN   C130321   7.206   3.501  11.877  0.3091 -0.0868 -0.1577
 3034DECAN   C230322   7.143   3.509  11.737  0.6207 -0.1359 -0.3019
 3034DECAN   C330323   7.134   3.366  11.680 -0.3919 -0.4351  0.5750
 3034DECAN   C430324   7.093   3.343  11.533  0.0414 -0.2255  0.4222
 3034DECAN   C530325   7.202   3.382  11.431 -0.4035  0.2567  0.1303
 3034DECAN   C630326   7.175   3.336  11.286  0.1060  0.1029  0.0827
 3034DECAN   C730327   7.117   3.444  11.193  0.0372 -0.4509 -0.5218
 3034DECAN   C830328   7.149   3.432  11.042 -0.0913 -0.2967 -0.5614
 3034DECAN   C930329   7.089   3.305  10.978 -0.5369 -0.6305  0.4799
 3034DECAN  C1030330   7.124   3.277  10.830 -0.3580  0.8101  0.2342
 3035DECAN   C130331   4.333   8.779   9.735 -0.7717 -0.2468 -0.4172
 3035DECAN   C230332   4.340   8.914   9.662 -0.1710 -0.2601 -0.3869
 3035DECAN   C330333   4.312   8.913   9.510  0.1465 -0.2062 -0.4472
 3035DECAN   C430334   4.363   9.034   9.430  0.2345 -0.0390 -0.1392
 3035DECAN   C530335   4.516   9.035   9.421  0.2423 -0.5082 -0.0412
 3035DECAN   C630336   4.567   9.000   9.562  0.1105  0.2130  0.1885
 3035DECAN   C730337   4.719   8.978   9.547  0.0548  0.1754 -0.3507
 3035DECAN   C830338   4.763   8.841   9.492 -0.3952 -0.0727 -0.1028
 3035DECAN   C930339   4.720   8.809   9.348 -0.5843 -0.0547 -0.0509
 3035DECAN  C1030340   4.743   8.659   9.321  0.9729  0.2416 -0.5051
 3036DECAN   C130341   5.298   9.575   6.308  0.6458  0.5855  0.0820
 3036DECAN   C230342   5.148   9.608   6.321  0.4622 -0.2749  0.2120
 3036DECAN   C330343   5.078   9.639   6.455  0.0297 -0.1703 -0.0365
 3036DECAN   C430344   4.929   9.676   6.462  0.0088 -0.2712  0.0436
 3036DECAN   C530345   4.896   9.741   6.598  0.1948  0.4542 -0.2544
 3036DECAN   C630346   4.746   9.765   6.624  0.1203 -0.4218  0.1529
 3036DECAN   C730347   4.693   9.854   6.738  0.0104 -0.1544 -0.1058
 3036DECAN   C830348   4.542   9.883   6.721  0.0288  0.1180  0.1895
 3036DECAN   C930349   4.485   9.960   6.842  0.1489  0.2316  0.1745
 3036DECAN  C1030350   4.332   9.974   6.847  0.0256 -0.8960 -0.1626
 3037DECAN   C130351   9.285   5.523  14.582 -0.2447  0.3350 -0.2302
 3037DECAN   C230352   9.363   5.587  14.699  0.1226 -0.3798 -0.0794
 3037DECAN   C330353   9.289   5.708  14.757  0.0890 -0.1936 -0.5115
 3037DECAN   C430354   9.149   5.666  14.807  0.1439  0.3014  0.0593
 3037DECAN   C530355   9.152   5.554  14.912 -0.1188  0.2107 -0.0299
 3037DECAN   C630356   9.024   5.468  14.912 -0.0945  0.1750 -0.0606
 3037DECAN   C730357   9.001   5.362  15.022  0.0449  0.0699 -0.1322
 3037DECAN   C830358   8.878   5.271  15.007 -0.1051  0.2341  0.1072
 3037DECAN   C930359   8.870   5.147  15.098 -0.3429  0.4004  0.3179
 3037DECAN  C1030360   8.721   5.108  15.101  0.0424 -1.2162 -0.1278
 3038DECAN   C130361   1.351   3.295   8.912 -0.1703  0.1655 -0.1710
 3038DECAN   C230362   1.283   3.207   8.806  0.5416 -0.5652 -0.0297
 3038DECAN   C330363   1.257   3.281   8.674 -0.0372 -0.3191  0.2205
 3038DECAN   C430364   1.364   3.373   8.612 -0.1652 -0.1852  0.1943
 3038DECAN   C530365   1.306   3.446   8.490  0.2163 -0.3298 -0.0763
 3038DECAN   C630366   1.399   3.528   8.399  0.4689 -0.1173  0.3687
 3038DECAN   C730367   1.340   3.611   8.283  0.3747  0.0212  0.5149
 3038DECAN   C830368   1.447   3.696   8.213 -0.0017  0.1702  0.1140
 3038DECAN   C930369   1.467   3.821   8.302 -0.5839  0.1144  0.3240
 3038DECAN  C1030370   1.360   3.922   8.256 -0.2229  0.1004 -0.5821
 3039DECAN   C130371   6.584   5.594  10.892 -0.1707  0.0652  0.2341
 3039DECAN   C230372   6.440   5.638  10.922 -0.2815  0.1174 -0.3633
 3039DECAN   C330373   6.345   5.517  10.904  0.0492 -0.1565 -0.2872
 3039DECAN   C430374   6.203   5.550  10.955  0.0969 -0.4445  0.0368
 3039DECAN   C530375   6.118   5.422  10.942  0.1356 -0.4814  0.1520
 3039DECAN   C630376   6.075   5.393  10.797  0.2471 -0.1678  0.0549
 3039DECAN   C730377   5.975   5.497  10.744  0.5886 -0.0693 -0.4085
 3039DECAN   C830378   5.935   5.476  10.597  0.2535  0.4271 -0.3905
 3039DECAN   C930379   5.851   5.592  10.541  0.0208  0.2915 -0.3242
 3039DECAN  C1030380   5.728   5.621  10.630  0.3614  0.5328  0.0679
 3040DECAN   C130381   8.370   3.720  13.612 -0.1243  0.4695  0.3294
 3040DECAN   C230382   8.340   3.714  13.461  0.2478 -0.3045  0.2830
 3040DECAN   C330383   8.429   3.819  13.393  0.1829 -0.3550  0.1225
 3040DECAN   C430384   8.582   3.797  13.383  0.1766  0.0509 -1.0986
 3040DECAN   C530385   8.661   3.929  13.371 -0.1218  0.3651  0.1797
 3040DECAN   C630386   8.814   3.922  13.351 -0.1480 -0.2123  0.1558
 3040DECAN   C730387   8.894   3.859  13.466  0.3034  0.0271 -0.0270
 3040DECAN   C830388   9.032   3.926  13.474  0.1868  0.3525 -0.7180
 3040DECAN   C930389   9.106   3.919  13.339  0.9593 -0.5004 -0.2607
 3040DECAN  C1030390   9.239   3.996  13.352  0.1075  0.7941  0.9447
 3041DECAN   C130391   5.072   2.386   7.325 -0.0153 -0.3754 -0.8661
 3041DECAN   C230392   4.962   2.482   7.375  0.1163 -0.4207 -0.4825
 3041DECAN   C330393   4.872   2.412   7.479 -0.4632  0.1323 -0.6000
 3041DECAN   C430394   4.812   2.275   7.444  0.3723 -0.5857  0.6624
 3041DECAN   C530395   4.712   2.209   7.541 -0.8096 -0.1206 -0.2193
 3041DECAN   C630396   4.674   2.066   7.500 -0.6554 -0.0733 -0.5310
 3041DECAN   C730397   4.607   2.002   7.624  0.0052 -0.3314 -0.3056
 3041DECAN   C830398   4.597   1.849   7.611 -0.0084 -0.3943  0.4185
 3041DECAN   C930399   4.729   1.773   7.632  0.2354 -0.0645  0.1095
 3041DECAN  C1030400   4.853   1.834   7.565  0.3190  0.1341  0.4409
 3042DECAN   C130401   5.390   6.368   6.094 -0.4291  0.3385 -0.1095
 3042DECAN   C230402   5.425   6.224   6.135  0.5023  0.4650 -0.4345
 3042DECAN   C330403   5.570   6.182   6.110  0.4431 -0.1749  0.2694
 3042DECAN   C430404   5.599   6.042   6.169 -0.1330 -0.4449 -0.0818
 3042DECAN   C530405   5.577   6.043   6.321 -0.1667  0.4567 -0.0837
 3042DECAN   C630406   5.561   5.900   6.378  0.0431  0.1887 -0.6824
 3042DECAN   C730407   5.442   5.817   6.330 -0.2172 -0.1430  0.5005
 3042DECAN   C830408   5.301   5.878   6.346 -0.0348  0.5382 -0.4143
 3042DECAN   C930409   5.199   5.816   6.249 -0.0313  0.3471 -0.2971
 3042DECAN  C1030410   5.071   5.896   6.282 -0.4059 -0.1020 -0.6494
 3043DECAN   C130411   9.057   1.284  11.056 -0.3024  0.2830 -0.1134
 3043DECAN   C230412   9.110   1.360  11.180  0.0527 -0.4569  0.1920
 3043DECAN   C330413   9.182   1.286  11.294  0.0792 -0.2785  0.2919
 3043DECAN   C430414   9.140   1.138  11.306 -0.5008 -0.1953 -0.6121
 3043DECAN   C530415   9.214   1.059  11.415 -0.1486  0.6449 -0.2348
 3043DECAN   C630416   9.220   1.109  11.561 -0.5353 -0.1584  0.0598
 3043DECAN   C730417   9.288   1.003  11.651 -0.5208  0.0054  0.2432
 3043DECAN   C830418   9.212   0.870  11.639 -0.4182 -0.0059 -0.3133
 3043DECAN   C930419   9.262   0.765  11.740  0.4504  0.0428 -0.6910
 3043DECAN  C1030420   9.196   0.630  11.707  0.1904  0.0721 -0.2918
 3044DECAN   C130421   5.793   9.934  11.182  0.0867  0.2816  0.2281
 3044DECAN   C230422   5.661   9.865  11.221 -0.0439  0.1495 -0.4261
 3044DECAN   C330423   5.632   9.879  11.372 -0.6852 -0.0515 -0.5250
 3044DECAN   C430424   5.512   9.805  11.433 -0.5255  0.0993 -0.0234
 3044DECAN   C530425   5.511   9.842  11.582  0.6550 -0.3254  0.1023
 3044DECAN   C630426   5.401   9.769  11.661  0.0837  0.1057 -0.2902
 3044DECAN   C730427   5.404   9.801  11.812 -0.4133 -0.3382 -0.1826
 3044DECAN   C830428   5.280   9.760  11.893 -0.1603 -0.2861  0.2353
 3044DECAN   C930429   5.282   9.753  12.047 -0.0300  0.4918  0.2740
 3044DECAN  C1030430   5.145   9.726  12.113 -0.1842  0.1913 -0.1644
 3045DECAN   C130431   6.121  10.941   7.264 -0.2480 -0.3616  0.4151
 3045DECAN   C230432   6.225  11.045   7.311  0.4504 -0.6688 -0.4137
 3045DECAN   C330433   6.278  11.019   7.453 -0.3789  0.5248  0.1334
 3045DECAN   C430434   6.362  10.890   7.446 -0.4509  0.4537  0.5074
 3045DECAN   C530435   6.461  10.875   7.563 -0.3527  0.0387  0.3748
 3045DECAN   C630436   6.497  10.729   7.593  0.3650  0.1797  0.2214
 3045DECAN   C730437   6.619  10.728   7.687  0.0644  0.6139  0.6201
 3045DECAN   C830438   6.663  10.589   7.738  0.1635  0.2552 -0.4228
 3045DECAN   C930439   6.813  10.584   7.773  0.0803 -0.3623 -0.1412
 3045DECAN  C1030440   6.910  10.649   7.673 -0.2398  0.1011 -0.1565
 3046DECAN   C130441  10.235  11.243  13.473  0.0552 -0.0947 -0.8666
 3046DECAN   C230442  10.305   0.056  13.348  0.2687  0.4276 -0.5125
 3046DECAN   C330443  10.208   0.103  13.239 -0.3494  0.0320 -0.1376
 3046DECAN   C430444  10.277   0.192  13.135 -0.2779  0.1904  0.0465
 3046DECAN   C530445  10.385   0.121  13.052  0.2010  0.4064  0.4810
 3046DECAN   C630446  10.458   0.219  12.957  0.3890 -0.2707 -0.0848
 3046DECAN   C730447  10.553   0.165  12.849 -0.4190 -0.4162 -0.7361
 3046DECAN   C830448  10.640   0.275  12.785 -0.0216 -0.0127  0.4591
 3046DECAN   C930449  10.729   0.353  12.883 -0.2860 -0.5267  1.1194
 3046DECAN  C1030450  10.637   0.445  12.964 -0.4443  0.0550  0.2888
 3047DECAN   C130451   2.049   3.623  13.325 -0.4244  0.3272  0.2798
 3047DECAN   C230452   2.094   3.714  13.440  0.4050  0.1025  0.1413
 3047DECAN   C330453   2.062   3.659  13.580  0.0877 -0.3940 -0.1260
 3047DECAN   C430454   2.118   3.741  13.698  0.1206 -0.5002 -0.0675
 3047DECAN   C530455   2.097   3.686  13.840 -0.2836 -0.0333  0.0561
 3047DECAN   C630456   2.151   3.793  13.937 -0.5524  0.2204 -0.0718
 3047DECAN   C730457   2.191   3.734  14.073  0.7742  0.0255 -0.5365
 3047DECAN   C830458   2.273   3.832  14.160  0.8021 -0.2421 -0.2589
 3047DECAN   C930459   2.318   3.759  14.288  0.2239  0.1928  0.2011
 3047DECAN  C1030460   2.391   3.855  14.383  0.3035  0.3451 -0.0127
 3048DECAN   C130461  10.100   4.123  11.283 -0.1066  0.3433  0.3691
 3048DECAN   C230462  10.066   4.203  11.410 -0.2953  0.2273  0.3916
 3048DECAN   C330463  10.168   4.287  11.488 -0.1184  0.0973  0.3013
 3048DECAN   C430464  10.097   4.367  11.599  0.1372 -0.3492  0.7926
 3048DECAN   C530465  10.184   4.469  11.675  0.3523 -0.3104  0.4968
 3048DECAN   C630466  10.110   4.565  11.770 -0.1769 -0.2413  0.0167
 3048DECAN   C730467  10.007   4.511  11.871 -0.2388 -0.0845  0.0376
 3048DECAN   C830468   9.943   4.629  11.947  0.2361  0.0911  0.1700
 3048DECAN   C930469   9.844   4.576  12.052  0.0287 -0.0515 -0.0939
 3048DECAN  C1030470   9.911   4.511  12.175 -0.2955  0.2796  0.2624
 3049DECAN   C130471   2.611   2.251  10.189 -0.4336  0.3118  0.8103
 3049DECAN   C230472   2.494   2.215  10.095  0.0290  0.8431  0.0139
 3049DECAN   C330473   2.517   2.262   9.950  0.0907  0.0231 -0.2447
 3049DECAN   C430474   2.501   2.412   9.920  0.0344 -0.0708 -0.6973
 3049DECAN   C530475   2.565   2.473   9.794 -0.0447  0.0551 -0.6758
 3049DECAN   C630476   2.516   2.614   9.758  0.0369  0.1959 -0.2367
 3049DECAN   C730477   2.498   2.708   9.879  0.3810 -0.1277  0.0696
 3049DECAN   C830478   2.383   2.661   9.970  0.1224  0.2795 -0.0415
 3049DECAN   C930479   2.356   2.760  10.084 -0.2668 -0.2709  0.3526
 3049DECAN  C1030480   2.475   2.775  10.182  0.3816  0.1828 -0.4866
 3050DECAN   C130481  10.815   6.625  11.997  0.1262 -0.0071  0.0936
 3050DECAN   C230482  10.798   6.511  11.895  0.5328 -0.2985  0.3509
 3050DECAN   C330483  10.889   6.523  11.771  0.3851 -0.4634  0.2259
 3050DECAN   C430484  10.866   6.418  11.660  0.2773 -0.1149 -0.0821
 3050DECAN   C530485  10.966   6.428  11.543  0.2238 -0.0792 -0.1241
 3050DECAN   C630486  10.947   6.327  11.428 -0.1786 -0.5880  0.3824
 3050DECAN   C730487  11.072   6.338  11.338  0.0036 -0.6133  0.6305
 3050DECAN   C830488  11.050   6.262  11.206 -0.2641  0.2627  0.1669
 3050DECAN   C930489  10.993   6.359  11.100 -0.5351 -0.0963 -0.0168
 3050DECAN  C1030490  10.961   6.303  10.960 -0.1683  0.2533 -0.2425
 3051DECAN   C130491   7.384   2.623  14.403 -0.2206 -0.5206  0.2315
 3051DECAN   C230492   7.480   2.592  14.287 -0.4893 -0.0306 -0.1274
 3051DECAN   C330493   7.405   2.528  14.168 -0.3819 -0.2028 -0.1029
 3051DECAN   C430494   7.492   2.511  14.043 -0.5944  0.1523 -0.2982
 3051DECAN   C530495   7.498   2.628  13.942  0.0331  0.2250 -0.1865
 3051DECAN   C630496   7.549   2.582  13.804 -0.0539 -0.1024 -0.1102
 3051DECAN   C730497   7.435   2.583  13.701 -0.1596 -0.3727  0.0016
 3051DECAN   C830498   7.461   2.519  13.563 -0.3127  0.3366 -0.3614
 3051DECAN   C930499   7.338   2.532  13.472 -0.2073 -0.3629 -0.6088
 3051DECAN  C1030500   7.238   2.426  13.522  0.2923 -0.2462  0.6685
 3052DECAN   C130501   8.474   2.944   8.933 -0.2848 -0.2526 -0.0386
 3052DECAN   C230502   8.546   2.902   9.062 -0.7311  0.0491  0.3132
 3052DECAN   C330503   8.607   3.031   9.120 -0.0537 -0.0212 -0.2290
 3052DECAN   C430504   8.708   2.981   9.225 -0.5225 -0.0226  0.2241
 3052DECAN   C530505   8.800   3.100   9.261  0.1647 -0.6010  0.4013
 3052DECAN   C630506   8.898   3.090   9.379  0.2241  0.3122  0.4337
 3052DECAN   C730507   9.035   3.156   9.353  0.2362  0.2366  0.3026
 3052DECAN   C830508   9.025   3.308   9.327 -0.3952  0.0846 -0.3856
 3052DECAN   C930509   8.990   3.384   9.456  0.1659  0.1645 -0.2802
 3052DECAN  C1030510   9.089   3.347   9.569  0.1644 -0.1025 -0.3665
 3053DECAN   C130511   5.058   3.245  11.671  0.5539 -0.3594  0.1772
 3053DECAN   C230512   5.092   3.275  11.818 -0.1175 -0.1309  0.2906
 3053DECAN   C330513   5.243   3.275  11.850 -0.0846  0.2884  0.1425
 3053DECAN   C430514   5.307   3.136  11.835 -0.2417  0.1934  0.3471
 3053DECAN   C530515   5.448   3.103  11.886 -0.0617 -0.1016 -0.3346
 3053DECAN   C630516   5.493   2.957  11.862  0.0770 -0.0565 -0.3495
 3053DECAN   C730517   5.548   2.923  11.723  0.3756 -0.1131 -0.2188
 3053DECAN   C830518   5.582   2.775  11.697  0.6581 -0.0653 -0.1298
 3053DECAN   C930519   5.675   2.755  11.576  0.0790 -0.6173 -0.4855
 3053DECAN  C1030520   5.621   2.793  11.437 -0.1080 -0.2394 -0.3088
 3054DECAN   C130521   4.332   4.915   6.954  0.0766 -0.1723 -0.3261
 3054DECAN   C230522   4.438   4.823   7.018 -0.1336 -0.0449  0.2170
 3054DECAN   C330523   4.506   4.874   7.146 -0.3437  0.2777  0.1988
 3054DECAN   C430524   4.618   4.781   7.193 -0.1772  0.2466 -0.2663
 3054DECAN   C530525   4.658   4.780   7.341  0.7075 -0.0895 -0.4958
 3054DECAN   C630526   4.781   4.689   7.361  0.5600 -0.0701  0.5662
 3054DECAN   C730527   4.765   4.540   7.327 -0.0193  0.1598 -0.1856
 3054DECAN   C830528   4.873   4.438   7.365 -0.2907 -0.0500  0.0287
 3054DECAN   C930529   4.843   4.303   7.298  0.5224 -0.0544 -0.3468
 3054DECAN  C1030530   4.719   4.228   7.350  0.6147 -0.3272 -0.5168
 3055DECAN   C130531   9.133   4.122  10.491 -0.5504  0.5879 -0.1758
 3055DECAN   C230532   9.048   4.099  10.618  0.2734 -0.3167  0.2259
 3055DECAN   C330533   9.012   3.955  10.658 -0.4321 -0.2626 -0.1807
 3055DECAN   C430534   9.117   3.879  10.743 -0.1004  0.5796  0.1679
 3055DECAN   C530535   9.089   3.742  10.806  0.2300  0.0168 -0.8797
 3055DECAN   C630536   9.221   3.687  10.863  0.0807 -0.2095 -0.7493
 3055DECAN   C730537   9.290   3.797  10.947 -0.5885 -0.0461 -0.4027
 3055DECAN   C830538   9.207   3.856  11.061  0.3233  0.1961  0.1466
 3055DECAN   C930539   9.192   3.748  11.170 -0.5702  0.5877  0.4258
 3055DECAN  C1030540   9.145   3.814  11.301 -0.6037 -0.2080  0.8157
 3056DECAN   C130541   9.425  10.129   6.684  0.0773  0.1186  0.2249
 3056DECAN   C230542   9.501  10.031   6.592  0.1639  0.3185  0.0809
 3056DECAN   C330543   9.653  10.042   6.610  0.1284  0.0820  0.5418
 3056DECAN   C430544   9.730   9.953   6.511 -0.0698 -0.1323  0.5789
 3056DECAN   C530545   9.880   9.939   6.544  0.2174  0.2712 -0.5369
 3056DECAN   C630546   9.923   9.950   6.691 -0.3975 -0.2355 -0.3170
 3056DECAN   C730547  10.072   9.927   6.725 -0.4455 -0.3915 -0.2110
 3056DECAN   C830548  10.171  10.030   6.668 -0.6565 -0.0788 -0.0099
 3056DECAN   C930549  10.315   9.978   6.659 -0.5898  0.0933  0.0769
 3056DECAN  C1030550  10.413  10.089   6.616 -0.1818 -0.4392 -0.3815
 3057DECAN   C130551   3.862   8.120   9.978  0.3899  0.1087  0.1877
 3057DECAN   C230552   3.864   8.123  10.132 -0.3054  0.9225  0.1882
 3057DECAN   C330553   4.006   8.112  10.190 -0.1131  0.1274 -0.4085
 3057DECAN   C430554   4.090   8.240  10.170  0.0941  0.1275  0.4083
 3057DECAN   C530555   4.239   8.218  10.203  0.2716 -0.5629 -0.7864
 3057DECAN   C630556   4.329   8.336  10.158 -0.2470  0.1127 -0.0674
 3057DECAN   C730557   4.477   8.310  10.189 -0.3231 -0.1959  0.0426
 3057DECAN   C830558   4.563   8.436  10.168  0.0933 -0.4859 -0.0071
 3057DECAN   C930559   4.702   8.418  10.231  0.0011 -0.0534  0.3193
 3057DECAN  C1030560   4.803   8.528  10.190 -0.3261  0.1807  0.1407
 3058DECAN   C130561   8.389   5.301   5.848  0.9837 -0.1479 -0.5353
 3058DECAN   C230562   8.333   5.218   5.731  0.2065 -0.1717 -0.1553
 3058DECAN   C330563   8.231   5.286   5.639  0.5023  0.0529 -0.3166
 3058DECAN   C430564   8.289   5.391   5.542  0.3923  0.4604  0.0523
 3058DECAN   C530565   8.187   5.425   5.432  0.0678 -0.4243  0.0717
 3058DECAN   C630566   8.277   5.503   5.335  0.0098 -0.4664 -0.0162
 3058DECAN   C730567   8.209   5.530   5.200  0.1538 -0.1746 -0.0305
 3058DECAN   C830568   8.299   5.580   5.085 -0.5954  0.1794 -0.4799
 3058DECAN   C930569   8.373   5.714   5.101  0.0021 -0.1804 -0.1640
 3058DECAN  C1030570   8.503   5.746   5.024 -0.0700 -0.3073 -0.3405
 3059DECAN   C130571   7.894   1.200   4.459  0.5206  0.3801 -0.0131
 3059DECAN   C230572   7.901   1.115   4.331 -0.3758  0.2023  0.0484
 3059DECAN   C330573   7.818   0.988   4.360 -0.1738 -0.0122 -0.3065
 3059DECAN   C430574   7.682   1.019   4.426 -0.2704  0.0718 -0.5400
 3059DECAN   C530575   7.610   0.910   4.507 -0.1433  0.5702  0.2612
 3059DECAN   C630576   7.685   0.857   4.630  0.3363 -0.6774 -0.5513
 3059DECAN   C730577   7.609   0.757   4.720  0.3545 -0.0682  0.1519
 3059DECAN   C830578   7.691   0.676   4.821  0.6712 -0.5616 -0.4966
 3059DECAN   C930579   7.607   0.578   4.906 -0.4836  0.5073 -0.3905
 3059DECAN  C1030580   7.517   0.477   4.833 -0.4090  0.2850 -0.1745
 3060DECAN   C130581   6.174   6.058   7.512  0.0786  0.4707 -0.3162
 3060DECAN   C230582   6.319   6.090   7.552  0.2707  0.0736 -0.6815
 3060DECAN   C330583   6.355   6.063   7.700  0.0564  0.6336 -0.5258
 3060DECAN   C430584   6.249   6.119   7.797  0.2394  0.5012 -0.2490
 3060DECAN   C530585   6.301   6.214   7.906  0.5895 -0.2477  0.2471
 3060DECAN   C630586   6.207   6.266   8.016  0.5664  0.5465 -0.1364
 3060DECAN   C730587   6.273   6.352   8.125  0.3348  0.1563  0.3156
 3060DECAN   C830588   6.183   6.420   8.230  0.0736 -0.0640  0.2369
 3060DECAN   C930589   6.246   6.411   8.370  0.5256  0.1974  0.0542
 3060DECAN  C1030590   6.155   6.480   8.473 -0.1609 -0.7178  0.0709
 3061DECAN   C130591   7.636   2.217  13.897  0.5355  0.1497  0.1248
 3061DECAN   C230592   7.545   2.109  13.959 -0.1343  0.6202 -0.0322
 3061DECAN   C330593   7.622   2.060  14.083  0.5101  0.9057 -0.3172
 3061DECAN   C430594   7.604   2.137  14.215 -0.2222  0.2654 -0.0396
 3061DECAN   C530595   7.687   2.080  14.332 -0.3584 -0.2003 -0.1673
 3061DECAN   C630596   7.756   2.193  14.411 -0.9105  0.3930 -0.5214
 3061DECAN   C730597   7.658   2.286  14.485 -0.9188  0.3076 -0.4243
 3061DECAN   C830598   7.724   2.360  14.603 -0.4540 -0.2691 -0.3184
 3061DECAN   C930599   7.816   2.469  14.544 -0.0024 -0.3422  0.2436
 3061DECAN  C1030600   7.891   2.568  14.636 -0.4748  0.4207 -0.1789
 3062DECAN   C130601   1.750   9.160  14.325 -0.0078 -0.0470  0.0182
 3062DECAN   C230602   1.668   9.036  14.367 -0.3291  0.1454 -0.0372
 3062DECAN   C330603   1.756   8.933  14.440  0.0069  0.3576 -0.1405
 3062DECAN   C430604   1.669   8.833  14.518 -0.1599  0.3550 -0.3285
 3062DECAN   C530605   1.751   8.726  14.592 -0.4531  0.2440 -0.1636
 3062DECAN   C630606   1.826   8.630  14.497  0.3249  0.1297  0.5473
 3062DECAN   C730607   1.892   8.500  14.547  0.0760  0.0373  0.6400
 3062DECAN   C830608   1.955   8.411  14.438 -0.3952  0.6774 -0.1690
 3062DECAN   C930609   1.997   8.272  14.489 -0.0625  0.7220 -0.3242
 3062DECAN  C1030610   2.062   8.180  14.384  0.3508  0.3176  0.2782
 3063DECAN   C130611   7.100   2.874  10.691 -0.3148  0.8942  0.0199
 3063DECAN   C230612   6.949   2.902  10.674 -0.4863 -0.0665 -0.1021
 3063DECAN   C330613   6.898   3.040  10.630 -0.2268 -0.0717 -0.4280
 3063DECAN   C430614   6.747   3.066  10.648 -0.1141  0.3180 -0.0368
 3063DECAN   C530615   6.684   3.181  10.568 -0.1057  0.2431 -0.1520
 3063DECAN   C630616   6.531   3.194  10.582 -0.1457 -0.4331  0.1141
 3063DECAN   C730617   6.430   3.099  10.515 -0.2663 -0.1741 -0.0772
 3063DECAN   C830618   6.438   3.124  10.364 -0.2780  0.3372  0.0044
 3063DECAN   C930619   6.446   3.265  10.304  0.5218  0.2706 -0.0508
 3063DECAN  C1030620   6.487   3.260  10.155  0.0076  0.1164 -0.1890
 3064DECAN   C130621   4.497   6.616   4.955  0.1670 -0.1750  0.3111
 3064DECAN   C230622   4.465   6.561   5.096  0.4198 -0.2760  0.3296
 3064DECAN   C330623   4.581   6.470   5.139  0.6734 -0.1255 -0.0242
 3064DECAN   C430624   4.586   6.418   5.284 -0.0946  0.3036  0.1661
 3064DECAN   C530625   4.705   6.322   5.305 -0.4493 -0.1660  0.0603
 3064DECAN   C630626   4.715   6.269   5.450  0.9444  0.2160  0.1199
 3064DECAN   C730627   4.754   6.120   5.454  0.3183  0.0626  0.6662
 3064DECAN   C830628   4.889   6.086   5.388 -0.0430 -0.5601  0.2341
 3064DECAN   C930629   4.937   5.942   5.416  0.0445 -0.5903 -0.0699
 3064DECAN  C1030630   5.072   5.908   5.350  0.1380 -0.0183 -0.1869
 3065DECAN   C130631   4.881   2.854   3.724 -0.1021 -0.3321  0.2500
 3065DECAN   C230632   5.008   2.939   3.702 -0.2206 -0.1636  0.2104
 3065DECAN   C330633   5.127   2.894   3.788 -0.2651 -0.3903  0.1548
 3065DECAN   C430634   5.225   3.005   3.829 -0.5985 -0.1862  0.4039
 3065DECAN   C530635   5.303   2.961   3.954 -0.3049 -0.6441  0.0641
 3065DECAN   C630636   5.412   3.065   3.987 -0.0976 -0.5439 -0.9115
 3065DECAN   C730637   5.478   3.036   4.123 -0.0628  0.0541 -0.7980
 3065DECAN   C830638   5.598   3.130   4.146 -0.0665 -0.0948 -0.1460
 3065DECAN   C930639   5.704   3.092   4.041  0.7174  0.1848  0.5387
 3065DECAN  C1030640   5.677   3.146   3.899  0.1172  0.5802  0.7966
 3066DECAN   C130641   6.526   7.027  14.971  0.4500  1.0043 -0.0458
 3066DECAN   C230642   6.482   6.885  15.010 -0.3878  1.1003 -0.6151
 3066DECAN   C330643   6.335   6.862  14.969 -0.4125  0.5842 -0.2418
 3066DECAN   C430644   6.230   6.945  15.045 -0.3457  0.3099  0.1589
 3066DECAN   C530645   6.090   6.951  14.981 -0.3856  0.0377  0.2201
 3066DECAN   C630646   5.981   7.037  15.048 -0.5096 -0.2041  0.3292
 3066DECAN   C730647   5.994   7.188  15.024 -0.8437 -0.2679 -0.2499
 3066DECAN   C830648   6.130   7.240  15.074 -0.6490 -0.1839 -0.8493
 3066DECAN   C930649   6.139   7.393  15.069  0.2303 -0.1906  0.1320
 3066DECAN  C1030650   6.273   7.437  15.130  0.1320  0.5911 -0.2077
 3067DECAN   C130651   9.219   7.057   4.442 -0.1133  0.1624 -0.4977
 3067DECAN   C230652   9.097   7.148   4.414  0.0958  0.6322  0.1010
 3067DECAN   C330653   8.965   7.070   4.401  0.2995  0.2911  0.0624
 3067DECAN   C430654   8.972   6.973   4.282 -0.1982  0.2585  0.0595
 3067DECAN   C530655   8.837   6.907   4.245 -0.0063  0.0408 -0.2517
 3067DECAN   C630656   8.866   6.806   4.132  0.7696 -0.3701  0.3056
 3067DECAN   C730657   8.938   6.874   4.014  0.1758 -0.3995 -0.0766
 3067DECAN   C830658   8.977   6.772   3.905  0.2741  0.0303 -0.4442
 3067DECAN   C930659   9.027   6.846   3.779  1.2269 -0.2439 -0.2339
 3067DECAN  C1030660   8.973   6.982   3.733  0.6710 -0.4039 -0.0655
 3068DECAN   C130661   6.861   8.711  11.525 -0.2017  0.1805  0.0502
 3068DECAN   C230662   6.850   8.577  11.599 -0.1601  0.2320  0.1492
 3068DECAN   C330663   6.754   8.470  11.545 -0.0078  0.1426  0.0535
 3068DECAN   C430664   6.610   8.511  11.508  0.0011  0.1916  0.0697
 3068DECAN   C530665   6.499   8.404  11.495 -0.0052  0.2143 -0.0617
 3068DECAN   C630666   6.362   8.466  11.462 -0.1725 -0.5166 -0.7595
 3068DECAN   C730667   6.244   8.368  11.477 -0.3635 -0.1120  0.5058
 3068DECAN   C830668   6.115   8.451  11.484  0.0304  0.5501  0.0607
 3068DECAN   C930669   6.042   8.485  11.352 -0.2328  1.2645  0.3855
 3068DECAN  C1030670   6.148   8.555  11.265 -0.2625  0.7308 -0.0851
 3069DECAN   C130671   1.674   9.456  11.093  0.5995  0.0222  0.0124
 3069DECAN   C230672   1.653   9.545  11.217 -0.3026 -0.5871  0.3051
 3069DECAN   C330673   1.644   9.472  11.352  0.3101 -1.0658  0.0923
 3069DECAN   C430674   1.638   9.561  11.479 -0.4009  0.4269 -0.9569
 3069DECAN   C530675   1.509   9.645  11.488 -0.4302  0.2531  0.4057
 3069DECAN   C630676   1.503   9.769  11.579  0.2870  0.3634  0.3050
 3069DECAN   C730677   1.364   9.834  11.581  0.0844 -0.0274 -0.4845
 3069DECAN   C830678   1.325   9.927  11.465  0.3382 -0.0196 -0.5639
 3069DECAN   C930679   1.255   9.852  11.351  0.4496 -0.5095 -0.3108
 3069DECAN  C1030680   1.115   9.799  11.387  0.2045  0.5010  0.2496
 3070DECAN   C130681  10.122   7.860   6.318 -0.1326 -0.0540 -0.1075
 3070DECAN   C230682   9.973   7.836   6.285 -0.0804  0.3136 -0.6089
 3070DECAN   C330683   9.905   7.971   6.253 -0.8854 -0.0255 -0.3487
 3070DECAN   C430684   9.977   8.049   6.141  0.3988 -0.2043  0.3325
 3070DECAN   C530685  10.040   7.956   6.036 -0.1071 -0.1041 -0.0611
 3070DECAN   C630686  10.112   8.028   5.921  0.0178 -0.3218 -0.1196
 3070DECAN   C730687  10.146   7.938   5.800  0.5368 -0.1790 -0.0802
 3070DECAN   C830688  10.227   8.010   5.691  0.0432  0.2566 -0.1610
 3070DECAN   C930689  10.278   7.922   5.576 -0.0973  0.2077 -0.1870
 3070DECAN  C1030690  10.391   7.974   5.485  0.0492  0.0734 -0.0812
 3071DECAN   C130691  10.132   3.714   5.852 -0.2210 -0.3003  0.7331
 3071DECAN   C230692  10.122   3.609   5.740 -0.3791  0.6116 -0.1265
 3071DECAN   C330693  10.001   3.634   5.649 -0.1759 -0.2912 -0.6658
 3071DECAN   C430694   9.925   3.508   5.604 -0.2348 -0.5614  0.1776
 3071DECAN   C530695   9.837   3.541   5.482  0.2515  0.1012  0.0005
 3071DECAN   C630696   9.773   3.418   5.415  0.3516 -0.0820  0.2392
 3071DECAN   C730697   9.671   3.450   5.304 -0.0129 -0.7806  0.3691
 3071DECAN   C830698   9.547   3.515   5.368  0.5030  0.2748  0.3152
 3071DECAN   C930699   9.577   3.651   5.433  0.0922  0.4101  0.2228
 3071DECAN  C1030700   9.458   3.712   5.509  0.1844 -0.0710  0.7647
 3072DECAN   C130701   2.141   4.886  14.088  0.2499  0.0277  0.4565
 3072DECAN   C230702   2.178   4.782  14.195  0.2013 -0.6515 -0.1801
 3072DECAN   C330703   2.330   4.767  14.213  0.2608 -0.0818 -0.2006
 3072DECAN   C430704   2.372   4.693  14.341  0.1960  0.3612  0.0820
 3072DECAN   C530705   2.523   4.679  14.367  0.1970  0.1191 -0.0425
 3072DECAN   C630706   2.604   4.614  14.253 -0.2518 -0.2546 -0.1483
 3072DECAN   C730707   2.583   4.660  14.107  0.4754  0.6269  0.0167
 3072DECAN   C830708   2.634   4.573  13.991 -0.1232  0.1468  0.1071
 3072DECAN   C930709   2.785   4.541  13.985 -0.2283 -0.2721 -0.4307
 3072DECAN  C1030710   2.829   4.447  13.872 -0.1073 -0.4486 -0.2396
 3073DECAN   C130711   6.638   5.417   6.309 -0.2360  0.1501 -0.3587
 3073DECAN   C230712   6.617   5.455   6.457  0.4314 -0.3633 -0.1251
 3073DECAN   C330713   6.699   5.573   6.513 -0.2105  0.1032 -0.1644
 3073DECAN   C430714   6.682   5.709   6.442  0.0516  0.0867 -0.2570
 3073DECAN   C530715   6.788   5.808   6.496 -0.4442  0.2510  0.4324
 3073DECAN   C630716   6.934   5.766   6.518 -0.6210 -0.4860  0.2410
 3073DECAN   C730717   6.950   5.665   6.633 -0.4779 -0.2231  0.4537
 3073DECAN   C830718   6.921   5.723   6.773 -0.3523 -0.1831  0.4637
 3073DECAN   C930719   6.937   5.632   6.896  0.1147 -0.9833 -0.1770
 3073DECAN  C1030720   7.085   5.598   6.917  0.2834 -0.0356  0.2180
 3074DECAN   C130721   8.636   9.019   9.674 -0.2619  0.8926 -0.6122
 3074DECAN   C230722   8.491   8.976   9.701  0.1461  0.0456  0.3466
 3074DECAN   C330723   8.491   8.873   9.815  0.2434  0.0838  0.3807
 3074DECAN   C430724   8.359   8.799   9.840  0.1639  0.0815 -0.0502
 3074DECAN   C530725   8.316   8.709   9.722  0.7269  0.0869 -0.2618
 3074DECAN   C630726   8.178   8.648   9.754  0.4995  0.5778 -0.2922
 3074DECAN   C730727   8.123   8.580   9.627  0.3249  0.3041 -0.0706
 3074DECAN   C830728   7.976   8.538   9.642  0.4225 -0.1983 -0.4829
 3074DECAN   C930729   7.914   8.481   9.513 -0.3034  0.1991 -0.3170
 3074DECAN  C1030730   7.810   8.377   9.559 -0.4911  0.5362  0.0321
 3075DECAN   C130731  11.001   5.538  10.704 -0.4972 -0.5591 -0.2950
 3075DECAN   C230732  11.024   5.657  10.610 -0.1560  0.0346  0.5339
 3075DECAN   C330733  11.057   5.615  10.466 -0.1555  0.1218  0.5077
 3075DECAN   C430734  11.113   5.726  10.375  0.1155 -0.2004  0.2805
 3075DECAN   C530735  11.018   5.845  10.351  0.3927 -0.1206 -0.4532
 3075DECAN   C630736  10.891   5.823  10.267  0.1092  0.1678 -0.1054
 3075DECAN   C730737  10.831   5.951  10.207 -0.3526  0.0119  0.0197
 3075DECAN   C830738  10.687   5.929  10.156 -0.3706 -0.6704  0.3549
 3075DECAN   C930739  10.615   6.052  10.097  0.5686 -0.4895 -0.4573
 3075DECAN  C1030740  10.511   6.010   9.992  0.1031 -0.3976 -0.0358
 3076DECAN   C130741  10.508   4.225  10.065  0.0798  0.2839 -0.0725
 3076DECAN   C230742  10.523   4.150   9.931 -0.3566  0.3570 -0.1631
 3076DECAN   C330743  10.644   4.200   9.850  0.1691 -0.2641  0.2297
 3076DECAN   C430744  10.669   4.349   9.821  0.0467 -0.2113  0.3924
 3076DECAN   C530745  10.652   4.432   9.949  0.5897 -0.0959  0.3913
 3076DECAN   C630746  10.679   4.583   9.942  0.9003 -0.1393  0.5888
 3076DECAN   C730747  10.647   4.661  10.070  0.5545  0.5936  0.0641
 3076DECAN   C830748  10.729   4.602  10.186 -0.4814 -0.3360  0.3401
 3076DECAN   C930749  10.699   4.670  10.321  0.2713  0.1919  0.2443
 3076DECAN  C1030750  10.780   4.599  10.432  0.0300 -0.0830  0.2452
 3077DECAN   C130751   9.938   0.812   5.447 -0.6026 -0.2428 -0.0805
 3077DECAN   C230752   9.895   0.948   5.388  0.3386 -0.0661 -0.3705
 3077DECAN   C330753   9.849   1.058   5.485  0.0459 -0.2281 -0.3232
 3077DECAN   C430754   9.788   1.001   5.614 -0.1038 -0.0980 -0.3364
 3077DECAN   C530755   9.893   0.929   5.701 -0.6761  0.0892  0.5221
 3077DECAN   C630756   9.842   0.883   5.839 -0.9129 -0.5045  0.2382
 3077DECAN   C730757   9.957   0.824   5.922 -0.3540  0.0809 -0.1218
 3077DECAN   C830758   9.923   0.775   6.063  0.1363  0.2478  0.0589
 3077DECAN   C930759  10.027   0.683   6.129 -0.1916 -0.0811  0.1239
 3077DECAN  C1030760   9.984   0.620   6.263 -0.3864 -0.5895 -0.1789
 3078DECAN   C130761  10.981   3.897   8.467 -0.5780  0.3719 -0.7481
 3078DECAN   C230762  10.959   4.028   8.547 -0.0855  0.0987 -0.1547
 3078DECAN   C330763  10.857   4.127   8.487 -0.0987  0.0606 -0.1947
 3078DECAN   C430764  10.812   4.220   8.601  0.4173 -0.1966  0.2266
 3078DECAN   C530765  10.927   4.310   8.650  0.3487 -0.2943  0.5704
 3078DECAN   C630766  10.870   4.421   8.741 -0.3832  0.1754 -0.4392
 3078DECAN   C730767  10.793   4.533   8.669 -0.0385  0.7306  0.0467
 3078DECAN   C830768  10.870   4.622   8.570  0.3319  0.3040 -0.0570
 3078DECAN   C930769  10.792   4.745   8.520 -0.3306 -0.0708  0.0516
 3078DECAN  C1030770  10.878   4.853   8.452 -0.3805  0.0703  0.2119
 3079DECAN   C130771   7.542   8.343   6.973  0.5837  0.2087 -0.7492
 3079DECAN   C230772   7.576   8.492   6.990 -0.1853  0.3091 -0.0090
 3079DECAN   C330773   7.717   8.541   6.950 -0.0346 -0.1700 -0.0618
 3079DECAN   C430774   7.755   8.677   7.010 -0.1244 -0.0709 -0.2297
 3079DECAN   C530775   7.903   8.719   7.000 -0.1716  0.3181  0.5891
 3079DECAN   C630776   7.946   8.858   7.050  0.2827  0.4667 -0.1880
 3079DECAN   C730777   8.088   8.905   7.014  0.2379 -0.0144 -1.0095
 3079DECAN   C830778   8.118   9.046   7.068  0.0162 -0.3596  0.0310
 3079DECAN   C930779   8.235   9.116   6.997 -0.3913 -0.0106 -0.2945
 3079DECAN  C1030780   8.277   9.242   7.074 -0.4452  0.0457 -0.3565
 3080DECAN   C130781   2.585   0.171   7.130 -0.5862 -0.2938  0.1168
 3080DECAN   C230782   2.473   0.156   7.026 -0.6588 -0.3451  0.2020
 3080DECAN   C330783   2.481   0.264   6.916 -0.0941 -0.2976  0.2855
 3080DECAN   C430784   2.390   0.220   6.799  0.0150  0.1002  0.0472
 3080DECAN   C530785   2.414   0.311   6.678 -0.2169  0.4183  0.2385
 3080DECAN   C630786   2.395   0.255   6.535  1.0396 -0.2708  0.3295
 3080DECAN   C730787   2.424   0.360   6.427 -0.8249  0.2829  0.3324
 3080DECAN   C830788   2.361   0.312   6.295  0.1958 -0.2071  0.0072
 3080DECAN   C930789   2.217   0.260   6.316  0.2522 -0.3041  0.1508
 3080DECAN  C1030790   2.129   0.229   6.194 -0.0141 -0.3116  0.3444
 3081DECAN   C130791   6.915   9.989   7.593 -0.1383 -0.1890  0.1658
 3081DECAN   C230792   6.907   9.997   7.746 -0.0386  0.2154  0.1508
 3081DECAN   C330793   6.859  10.133   7.801  0.4761  0.5512 -0.2169
 3081DECAN   C430794   6.705  10.122   7.791  0.5307 -0.0761 -0.4002
 3081DECAN   C530795   6.625  10.251   7.816  0.3118 -0.3624  0.4078
 3081DECAN   C630796   6.474  10.227   7.801  0.3081 -0.1732  0.1272
 3081DECAN   C730797   6.385  10.345   7.844 -0.1702 -0.4736 -0.0277
 3081DECAN   C830798   6.234  10.314   7.843 -0.1337 -0.6618  0.2390
 3081DECAN   C930799   6.140  10.436   7.845  0.5619 -0.1069 -0.1379
 3081DECAN  C1030800   5.996  10.402   7.803  0.4079  0.2244  0.1134
 3082DECAN   C130801   6.185  11.063   4.769 -0.3222 -0.5321 -0.2099
 3082DECAN   C230802   6.038  11.057   4.724 -0.3973 -0.3434  0.0067
 3082DECAN   C330803   5.993  10.934   4.644 -0.5213 -0.3322  0.0596
 3082DECAN   C430804   5.994  10.956   4.492 -0.6451  0.6179  0.1948
 3082DECAN   C530805   5.927  10.846   4.408 -0.0608 -0.1624  0.7430
 3082DECAN   C630806   5.947  10.865   4.257  0.1852 -0.9230  0.6742
 3082DECAN   C730807   5.871  10.764   4.169 -0.8180  0.3099  0.0921
 3082DECAN   C830808   5.929  10.773   4.026 -0.6354 -0.2313  0.1316
 3082DECAN   C930809   5.874  10.665   3.931  0.1057  0.1629 -0.7514
 3082DECAN  C1030810   5.904  10.524   3.984 -0.3913  0.3615  0.0735
 3083DECAN   C130811   6.845  10.998  14.762 -0.3544  0.1332 -0.0605
 3083DECAN   C230812   6.733  11.085  14.823  0.0168 -0.1673  1.0715
 3083DECAN   C330813   6.733  11.234  14.782  0.1446 -0.4855 -0.1318
 3083DECAN   C430814   6.612   0.067  14.839  0.1737 -0.1476 -0.5268
 3083DECAN   C530815   6.475   0.002  14.816  0.3429 -0.4379 -0.7162
 3083DECAN   C630816   6.470  11.092  14.804  0.1081 -0.4426 -0.5678
 3083DECAN   C730817   6.323  11.053  14.782 -0.1321  0.4687 -0.6359
 3083DECAN   C830818   6.228  11.103  14.893  0.1127 -0.0376 -0.1941
 3083DECAN   C930819   6.197   0.010  14.892  0.6426  0.0715 -0.3341
 3083DECAN  C1030820   6.123   0.059  15.017  0.6710  0.2105 -0.3713
 3084DECAN   C130821   5.457  10.699   5.117  0.1449 -0.0071  0.0391
 3084DECAN   C230822   5.591  10.661   5.052  0.3541  0.9719 -0.1170
 3084DECAN   C330823   5.712  10.684   5.146  0.4897  0.0633 -0.0581
 3084DECAN   C430824   5.842  10.614   5.103 -0.0146 -0.7675 -0.2464
 3084DECAN   C530825   5.961  10.639   5.197 -0.2812 -0.0056 -0.1049
 3084DECAN   C630826   5.994  10.786   5.229  0.6028 -0.0861 -0.6011
 3084DECAN   C730827   6.110  10.791   5.330 -0.0211 -0.0555  0.1292
 3084DECAN   C830828   6.173  10.929   5.359  0.1581 -0.2346  0.6077
 3084DECAN   C930829   6.227  10.990   5.228 -0.3507 -0.0667  0.4707
 3084DECAN  C1030830   6.124  11.012   5.116 -0.0282 -0.8202  0.0120
 3085DECAN   C130831   6.987   5.348   8.170  0.4480 -0.0979  0.7137
 3085DECAN   C230832   7.133   5.394   8.188  0.3449  0.4814  0.0938
 3085DECAN   C330833   7.216   5.325   8.297 -0.0152 -0.1894 -0.0475
 3085DECAN   C430834   7.170   5.353   8.442  0.0681 -0.1439 -0.0292
 3085DECAN   C530835   7.253   5.289   8.554  0.1825  0.6146  0.3215
 3085DECAN   C630836   7.212   5.358   8.686 -0.7195  0.3155  0.1996
 3085DECAN   C730837   7.276   5.301   8.813 -0.5741 -0.1555 -0.0792
 3085DECAN   C830838   7.205   5.321   8.949 -0.0383  0.3577  0.1321
 3085DECAN   C930839   7.210   5.461   9.013 -0.1154  0.3048  0.2527
 3085DECAN  C1030840   7.177   5.452   9.164 -0.4111 -0.1034  0.1652
 3086DECAN   C130841   5.731   4.312   9.132  0.1750  0.4624 -0.3219
 3086DECAN   C230842   5.824   4.369   9.241  0.1917  0.0485 -0.1169
 3086DECAN   C330843   5.907   4.486   9.186  0.1820 -0.0647 -0.3734
 3086DECAN   C430844   6.009   4.549   9.283 -0.1809  0.5098 -0.3611
 3086DECAN   C530845   6.114   4.631   9.206  0.8743 -0.3811  0.1024
 3086DECAN   C630846   6.212   4.706   9.299 -0.1265  0.6571  0.3515
 3086DECAN   C730847   6.261   4.625   9.421  0.1923  0.0840 -0.1502
 3086DECAN   C830848   6.402   4.563   9.419 -0.0981 -0.5836 -0.3051
 3086DECAN   C930849   6.435   4.508   9.559  0.5007  0.0556 -0.1867
 3086DECAN  C1030850   6.454   4.606   9.676  0.0509  0.2764 -0.2982
 3087DECAN   C130851   4.498   1.318   4.458 -0.2326 -0.0944  0.2671
 3087DECAN   C230852   4.387   1.419   4.424  0.3808  0.5376  0.1152
 3087DECAN   C330853   4.270   1.433   4.523  0.3960 -0.0404  0.2212
 3087DECAN   C430854   4.164   1.528   4.463  0.1563 -0.2483  0.3176
 3087DECAN   C530855   4.074   1.583   4.575 -0.3640 -0.3592 -0.0435
 3087DECAN   C630856   3.973   1.685   4.522 -0.2623 -0.3712 -0.2603
 3087DECAN   C730857   3.868   1.743   4.619 -0.2300 -0.7355 -0.0064
 3087DECAN   C830858   3.746   1.810   4.553  0.2534  0.0699 -0.1096
 3087DECAN   C930859   3.643   1.870   4.651  0.1490  0.3089 -0.3681
 3087DECAN  C1030860   3.559   1.771   4.733  0.3099 -0.2029 -0.8133
 3088DECAN   C130861   8.425   6.172  12.395  0.2671  0.2122 -0.9976
 3088DECAN   C230862   8.324   6.059  12.421  0.6305  0.0429 -0.2997
 3088DECAN   C330863   8.220   6.055  12.308  0.3137 -0.8483  0.0181
 3088DECAN   C430864   8.124   5.935  12.308 -0.4275 -0.2624 -0.0586
 3088DECAN   C530865   8.208   5.806  12.312  0.4029  0.2848  0.1818
 3088DECAN   C630866   8.110   5.695  12.356  0.3459  0.3846  0.3094
 3088DECAN   C730867   8.192   5.565  12.351 -0.2305  0.0249  0.1139
 3088DECAN   C830868   8.329   5.582  12.419 -0.0623 -0.5068 -0.0861
 3088DECAN   C930869   8.343   5.640  12.562 -0.4361  0.0685 -0.2816
 3088DECAN  C1030870   8.486   5.674  12.607 -0.5575  0.0145  0.1389
 3089DECAN   C130871   1.417   3.802  12.530  0.1580 -0.3495  0.5219
 3089DECAN   C230872   1.335   3.813  12.659 -0.0271 -0.3010  0.4012
 3089DECAN   C330873   1.324   3.959  12.705 -0.3487 -0.2128  0.0426
 3089DECAN   C430874   1.457   3.996  12.773 -0.4365  0.4751 -0.1441
 3089DECAN   C530875   1.479   4.147  12.794  0.4378  0.3601 -0.1927
 3089DECAN   C630876   1.578   4.166  12.910  0.2092  0.5489 -0.0261
 3089DECAN   C730877   1.587   4.312  12.959  0.1451  0.3752  0.5141
 3089DECAN   C830878   1.700   4.331  13.062  0.3755 -0.3640  0.4047
 3089DECAN   C930879   1.722   4.477  13.106  0.5353 -0.2462 -0.0615
 3089DECAN  C1030880   1.755   4.578  12.995 -0.2758 -0.3883 -0.4357
 3090DECAN   C130881   3.251   1.902   6.535  0.2765 -0.6532  0.1941
 3090DECAN   C230882   3.132   1.849   6.617  0.1289  0.1267  0.4895
 3090DECAN   C330883   3.143   1.696   6.618  0.3029  0.1343 -0.0575
 3090DECAN   C430884   3.023   1.625   6.683  0.3512 -0.0751 -0.1965
 3090DECAN   C530885   3.043   1.472   6.688 -0.2665 -0.1486  0.2009
 3090DECAN   C630886   3.009   1.405   6.554 -0.3417 -0.1550  0.2234
 3090DECAN   C730887   3.047   1.258   6.526 -0.9351 -0.3081  0.2206
 3090DECAN   C830888   3.022   1.216   6.380 -0.1155  0.1422 -0.0559
 3090DECAN   C930889   2.876   1.183   6.343 -0.0586 -0.1878  0.0127
 3090DECAN  C1030890   2.861   1.143   6.195  0.0113 -0.2388  0.0198
 3091DECAN   C130891   5.028   1.184   7.280  0.1531  0.2894  0.0232
 3091DECAN   C230892   5.012   1.134   7.425  0.1795 -0.3637 -0.1958
 3091DECAN   C330893   5.143   1.157   7.504 -0.1376  0.6858  0.0427
 3091DECAN   C430894   5.104   1.136   7.652  0.1240 -0.3648 -0.0293
 3091DECAN   C530895   5.068   0.990   7.688 -0.2206 -0.3095 -0.1478
 3091DECAN   C630896   5.187   0.906   7.639 -0.3112 -0.3444 -0.3078
 3091DECAN   C730897   5.194   0.772   7.715  0.1851  0.1294  0.4905
 3091DECAN   C830898   5.069   0.683   7.714  0.6311 -0.5060  0.5064
 3091DECAN   C930899   5.081   0.554   7.797  0.0671 -0.4900  0.6204
 3091DECAN  C1030900   5.127   0.436   7.710  0.3405 -0.0584  0.1745
 3092DECAN   C130901   1.345   9.885   6.209 -0.5131 -0.2336 -0.1088
 3092DECAN   C230902   1.358   9.781   6.322  0.2952 -0.0254 -0.0046
 3092DECAN   C330903   1.396   9.639   6.274 -0.4035 -0.3024  0.2549
 3092DECAN   C430904   1.461   9.543   6.375 -0.5144 -0.2839  0.3441
 3092DECAN   C530905   1.609   9.562   6.411 -0.3659 -0.1709 -0.3158
 3092DECAN   C630906   1.638   9.675   6.511  0.0317 -0.0770 -0.5363
 3092DECAN   C730907   1.785   9.681   6.558 -0.0700  1.0367 -0.3304
 3092DECAN   C830908   1.820   9.766   6.682 -0.4020  0.2698  0.2945
 3092DECAN   C930909   1.962   9.753   6.740 -0.2411  0.4739 -0.0487
 3092DECAN  C1030910   2.071   9.835   6.669 -0.1753  0.4382  0.0111
 3093DECAN   C130911   5.128   2.609   8.387  0.6473 -0.4936  0.3113
 3093DECAN   C230912   5.072   2.741   8.332  0.7922 -0.5834 -0.0580
 3093DECAN   C330913   5.104   2.772   8.184  0.5473 -0.3397 -0.0600
 3093DECAN   C430914   5.038   2.671   8.088 -0.1442 -0.2707  0.3395
 3093DECAN   C530915   5.093   2.528   8.098  0.2778 -0.1508 -0.2534
 3093DECAN   C630916   5.026   2.413   8.020  0.0996  0.1161 -0.4986
 3093DECAN   C730917   5.086   2.271   8.035 -0.1778  0.0210 -0.2775
 3093DECAN   C830918   5.014   2.152   7.970 -0.4819 -0.2621  0.5627
 3093DECAN   C930919   5.079   2.017   8.005  0.2663 -0.1396 -0.3129
 3093DECAN  C1030920   5.025   1.891   7.934  0.0037 -0.1416 -0.1090
 3094DECAN   C130921   3.725   6.543   7.730 -0.3070 -0.1518 -0.3853
 3094DECAN   C230922   3.603   6.589   7.812 -0.2619 -0.3157 -0.2266
 3094DECAN   C330923   3.511   6.690   7.742 -0.0902 -0.0999 -0.1424
 3094DECAN   C430924   3.440   6.789   7.837  0.2464 -0.1285  0.1387
 3094DECAN   C530925   3.395   6.927   7.785  0.2631 -0.1491  0.0687
 3094DECAN   C630926   3.320   6.999   7.898  0.1279  0.0429 -0.1447
 3094DECAN   C730927   3.399   7.020   8.028 -0.5555 -0.6596  0.3942
 3094DECAN   C830928   3.315   7.079   8.142  0.5975  0.6501  0.5846
 3094DECAN   C930929   3.375   7.080   8.284  0.7466  0.0890  0.5287
 3094DECAN  C1030930   3.290   7.154   8.390 -0.5295 -0.3242 -0.1855
 3095DECAN   C130931   6.877   2.008  14.825 -0.7027 -0.1676  0.3941
 3095DECAN   C230932   6.980   1.926  14.903 -0.1913  0.0863 -0.0068
 3095DECAN   C330933   6.983   1.774  14.874 -0.4859  0.0822 -0.0130
 3095DECAN   C430934   7.087   1.702  14.961 -0.6542  0.1066  0.2112
 3095DECAN   C530935   7.079   1.552  14.925  0.1164  0.2389 -0.5543
 3095DECAN   C630936   7.112   1.528  14.777 -0.0354 -0.7671 -0.4312
 3095DECAN   C730937   7.259   1.544  14.731  0.0754 -0.1509  0.1278
 3095DECAN   C830938   7.279   1.515  14.581 -0.0257  0.3548  0.0132
 3095DECAN   C930939   7.227   1.376  14.541 -0.3990  0.3869  0.3705
 3095DECAN  C1030940   7.213   1.359  14.388  0.0458  0.5874  0.3068
 3096DECAN   C130941   8.969   9.390   8.574  0.4002  0.2921 -0.3207
 3096DECAN   C230942   8.924   9.378   8.428 -0.6028 -0.2625  0.0224
 3096DECAN   C330943   8.817   9.277   8.383 -0.4675 -0.1746 -0.5074
 3096DECAN   C430944   8.672   9.305   8.424 -0.3390  0.4048 -0.4395
 3096DECAN   C530945   8.568   9.212   8.359 -0.3559 -0.0116  0.1661
 3096DECAN   C630946   8.427   9.269   8.383 -0.4417 -0.2472  0.2239
 3096DECAN   C730947   8.317   9.191   8.307 -0.0703 -0.1684 -0.4028
 3096DECAN   C830948   8.276   9.053   8.360 -0.7334  0.2520  0.1978
 3096DECAN   C930949   8.164   8.974   8.289 -0.2465 -0.6460  0.4159
 3096DECAN  C1030950   8.037   9.060   8.302 -0.1215 -0.4523  0.3663
 3097DECAN   C130951   9.301   3.190  12.090 -0.2231  0.4886 -0.0160
 3097DECAN   C230952   9.310   3.141  11.944  0.1882  0.0418  0.1571
 3097DECAN   C330953   9.456   3.125  11.896  0.1274  0.0647 -0.0385
 3097DECAN   C430954   9.468   3.085  11.748  0.3082  0.2906 -0.0853
 3097DECAN   C530955   9.615   3.053  11.714  0.3868  0.2289  0.3071
 3097DECAN   C630956   9.610   2.971  11.583 -0.0529  0.3519  0.2420
 3097DECAN   C730957   9.747   2.940  11.519 -0.2066 -0.0149  0.0878
 3097DECAN   C830958   9.835   2.840  11.597 -0.3701  0.1127  0.4401
 3097DECAN   C930959   9.970   2.823  11.524 -0.3666  0.2585  0.4112
 3097DECAN  C1030960  10.048   2.947  11.477  0.3286 -0.2511  0.1977
 3098DECAN   C130961   5.871  10.864   8.233 -0.6544  0.4627  0.8537
 3098DECAN   C230962   5.989  10.836   8.327  0.0664 -0.1364 -0.2057
 3098DECAN   C330963   6.102  10.940   8.311  0.3038 -0.3780 -0.1119
 3098DECAN   C430964   6.215  10.917   8.413  0.1777  0.1816  0.1592
 3098DECAN   C530965   6.279  10.777   8.401  0.3161  0.2888 -0.3746
 3098DECAN   C630966   6.395  10.777   8.502 -0.0989  0.1103  0.1078
 3098DECAN   C730967   6.493  10.896   8.501  0.1733 -0.1125  0.2197
 3098DECAN   C830968   6.606  10.886   8.605  0.4437  0.1042 -0.0504
 3098DECAN   C930969   6.697  10.767   8.570 -0.6316 -0.6289 -0.4101
 3098DECAN  C1030970   6.821  10.757   8.660 -0.2430  0.2272 -0.8456
 3099DECAN   C130971   8.034   2.677   6.529  0.1848  0.1543  0.1659
 3099DECAN   C230972   8.079   2.816   6.481  0.0982 -0.0763 -0.6059
 3099DECAN   C330973   8.110   2.815   6.330 -0.2082  0.1989 -0.6735
 3099DECAN   C430974   8.221   2.711   6.303  0.5469  0.7470  0.2353
 3099DECAN   C530975   8.280   2.715   6.161  0.0007 -0.5591 -0.0473
 3099DECAN   C630976   8.401   2.625   6.131  0.4474 -0.0321  0.1426
 3099DECAN   C730977   8.534   2.666   6.197  0.2752  0.2064  0.3398
 3099DECAN   C830978   8.583   2.805   6.155  0.0703  0.1723 -0.0122
 3099DECAN   C930979   8.720   2.847   6.211 -0.1740  0.1173  0.6280
 3099DECAN  C1030980   8.754   2.993   6.174 -0.1958 -0.1374 -0.4234
 3100DECAN   C130981   9.242   3.086   5.141  0.4604 -0.1074  0.2121
 3100DECAN   C230982   9.227   3.236   5.172  0.2404 -0.1477  0.2985
 3100DECAN   C330983   9.226   3.260   5.324 -0.2299 -0.0503  0.2836
 3100DECAN   C430984   9.340   3.183   5.395 -0.0896  0.0529  0.1719
 3100DECAN   C530985   9.380   3.233   5.535  0.0441 -0.2737  0.2512
 3100DECAN   C630986   9.495   3.150   5.596  0.4033 -0.0215 -0.0784
 3100DECAN   C730987   9.471   3.003   5.635  0.1633 -0.1281 -0.6167
 3100DECAN   C830988   9.400   2.919   5.527 -0.5684  0.0091 -0.2471
 3100DECAN   C930989   9.389   2.770   5.566 -0.2896 -0.0118 -0.2418
 3100DECAN  C1030990   9.269   2.747   5.660  0.3558  0.1704  0.6410
 3101DECAN   C130991  10.755   0.136  12.234  0.0279 -0.6698 -0.4653
 3101DECAN   C230992  10.780   0.140  12.082  0.4586  0.2459 -0.3792
 3101DECAN   C330993  10.763   0.284  12.029  0.2679  0.3182 -0.1210
 3101DECAN   C430994  10.800   0.310  11.882  0.0064  0.2787 -0.1951
 3101DECAN   C530995  10.698   0.229  11.800 -0.1050 -0.0295  0.2465
 3101DECAN   C630996  10.703   0.261  11.650 -0.1824 -0.2915  0.1887
 3101DECAN   C730997  10.616   0.155  11.580 -0.7659  0.3409 -0.0525
 3101DECAN   C830998  10.669   0.122  11.439 -0.4088 -0.1972  0.2053
 3101DECAN   C930999  10.624  11.228  11.387 -0.1492 -0.1746 -0.0806
 3101DECAN  C1031000  10.709  11.106  11.428  0.1820  0.1402  0.1755
 3102DECAN   C131001   7.999   4.652   8.772 -0.3552  0.2459 -1.0420
 3102DECAN   C231002   7.997   4.803   8.801 -0.3567 -0.0988  0.9134
 3102DECAN   C331003   8.121   4.878   8.853 -0.1089  0.0974  0.0590
 3102DECAN   C431004   8.109   5.032   8.852  0.5301  0.1473  0.0588
 3102DECAN   C531005   8.099   5.089   8.710 -0.3731 -0.2566 -0.0487
 3102DECAN   C631006   8.090   5.243   8.706 -0.4431 -0.2494  0.3840
 3102DECAN   C731007   8.087   5.306   8.566 -0.0717 -0.8875  0.0804
 3102DECAN   C831008   8.200   5.299   8.462 -0.2630 -0.3102 -0.1756
 3102DECAN   C931009   8.166   5.397   8.348  0.7541 -0.4095 -0.5757
 3102DECAN  C1031010   8.064   5.354   8.241 -0.4321 -0.2486  0.4583
 3103DECAN   C131011   8.381   2.314  13.396  0.7588 -0.0618 -0.1641
 3103DECAN   C231012   8.284   2.261  13.289  0.1300  0.1549  0.2927
 3103DECAN   C331013   8.188   2.364  13.228 -0.3202 -0.1097  0.5444
 3103DECAN   C431014   8.109   2.318  13.104 -0.0820 -0.1225  0.3950
 3103DECAN   C531015   8.033   2.425  13.023  0.6459  0.0261 -0.0906
 3103DECAN   C631016   7.941   2.354  12.922  0.2013  0.1133  0.2538
 3103DECAN   C731017   7.874   2.225  12.973  0.1326  0.2087  0.4023
 3103DECAN   C831018   7.804   2.223  13.111 -0.5000  0.1462  0.0843
 3103DECAN   C931019   7.677   2.311  13.114 -0.1944  0.5878  0.1835
 3103DECAN  C1031020   7.572   2.303  13.226  0.4386  0.5608  0.7824
 3104DECAN   C131021   8.763   5.358   8.371  0.0242  0.3505 -0.4309
 3104DECAN   C231022   8.823   5.500   8.370 -0.0773  0.3945 -0.0845
 3104DECAN   C331023   8.878   5.563   8.500 -0.1510  0.1372  0.0733
 3104DECAN   C431024   8.959   5.692   8.479 -0.1675  0.0888 -0.2997
 3104DECAN   C531025   9.097   5.676   8.412  0.0400 -0.1397  0.1693
 3104DECAN   C631026   9.108   5.587   8.287  0.0791  0.0769  0.0166
 3104DECAN   C731027   9.248   5.544   8.240 -0.1819 -0.2914 -0.4405
 3104DECAN   C831028   9.337   5.661   8.192 -0.1800 -0.1927 -0.2011
 3104DECAN   C931029   9.473   5.606   8.145  0.0056 -0.2648  0.4135
 3104DECAN  C1031030   9.554   5.551   8.264  0.6830  0.0323  0.0969
 3105DECAN   C131031   4.389   4.415   7.243  0.2707  0.7839 -1.3823
 3105DECAN   C231032   4.314   4.549   7.253 -0.2141  0.4432 -0.2162
 3105DECAN   C331033   4.162   4.534   7.272 -0.1814 -0.1029 -0.3689
 3105DECAN   C431034   4.111   4.453   7.152  0.1820 -0.8351 -0.0362
 3105DECAN   C531035   4.156   4.519   7.020 -0.1250 -0.1261  0.2078
 3105DECAN   C631036   4.129   4.448   6.886  0.2148 -0.4390  0.3052
 3105DECAN   C731037   4.221   4.482   6.767 -0.2874  0.2002  0.0963
 3105DECAN   C831038   4.203   4.625   6.714  0.6967  0.3978  0.2721
 3105DECAN   C931039   4.276   4.666   6.584 -0.8252  0.0161 -0.7407
 3105DECAN  C1031040   4.278   4.819   6.565  0.5714  0.0958 -0.1299
 3106DECAN   C131041   2.825   8.297  12.187  0.1846  0.5415 -0.2786
 3106DECAN   C231042   2.974   8.316  12.222 -0.0340  0.3170  0.7944
 3106DECAN   C331043   3.059   8.191  12.196 -0.5275  0.1810 -0.2069
 3106DECAN   C431044   3.206   8.183  12.243 -0.3871  0.0907 -0.6547
 3106DECAN   C531045   3.223   8.197  12.395 -0.2951 -0.0366 -0.6542
 3106DECAN   C631046   3.133   8.095  12.468 -0.2726  0.3347 -0.1034
 3106DECAN   C731047   3.190   8.044  12.601 -0.1986  0.5001 -0.0717
 3106DECAN   C831048   3.338   8.002  12.586 -0.2726  0.3766 -0.4712
 3106DECAN   C931049   3.427   7.990  12.711 -0.4049 -0.4078 -0.4487
 3106DECAN  C1031050   3.360   7.898  12.815  0.4070  0.2268  0.6682
 3107DECAN   C131051   8.396  10.049  11.895  0.1174  0.9731 -0.6406
 3107DECAN   C231052   8.290   9.987  11.801  0.0743 -0.4157  0.3058
 3107DECAN   C331053   8.308  10.025  11.653 -0.4779 -0.0338  0.3341
 3107DECAN   C431054   8.414   9.946  11.573 -0.4908  0.2057  0.0818
 3107DECAN   C531055   8.488  10.035  11.472 -0.0024 -0.3319 -0.0393
 3107DECAN   C631056   8.597  10.128  11.529 -0.3002 -0.2295  0.3689
 3107DECAN   C731057   8.662  10.234  11.439 -0.2331 -0.2653  0.3754
 3107DECAN   C831058   8.764  10.328  11.506 -0.1378 -0.1195  0.0295
 3107DECAN   C931059   8.804  10.457  11.431 -0.1240  0.0080  0.2559
 3107DECAN  C1031060   8.926  10.526  11.493 -0.1436  0.0521  0.2454
 3108DECAN   C131061   4.777   1.332   8.824 -0.4038  0.0142  0.0818
 3108DECAN   C231062   4.817   1.480   8.835  0.3056 -0.1799  0.1547
 3108DECAN   C331063   4.904   1.534   8.720  0.2420  0.1359  0.2547
 3108DECAN   C431064   4.964   1.676   8.734  0.3189  0.0911  0.3789
 3108DECAN   C531065   5.048   1.727   8.616 -0.0653 -0.1985 -0.0237
 3108DECAN   C631066   5.058   1.880   8.619  0.3410 -0.2231 -0.0197
 3108DECAN   C731067   5.169   1.933   8.526  0.3833 -0.1586  0.0662
 3108DECAN   C831068   5.174   2.086   8.512 -0.2053 -0.1282  0.1450
 3108DECAN   C931069   5.282   2.115   8.407  0.0932 -0.1869  0.4319
 3108DECAN  C1031070   5.315   2.264   8.388  0.2230 -0.3064 -0.3397
 3109DECAN   C131071   8.517   0.042  11.269  0.0548 -0.2769  0.1306
 3109DECAN   C231072   8.394   0.056  11.177  0.2113  0.1857 -0.0150
 3109DECAN   C331073   8.445   0.038  11.033 -0.1372  0.2828 -0.1513
 3109DECAN   C431074   8.540  11.162  11.017  0.5374  0.8115 -0.1813
 3109DECAN   C531075   8.629  11.147  10.892  0.1571  0.0688 -0.3681
 3109DECAN   C631076   8.701  11.011  10.904 -0.0575  0.0102  0.3845
 3109DECAN   C731077   8.614  10.888  10.931  0.3241 -0.3303  0.0794
 3109DECAN   C831078   8.503  10.883  10.824  0.6324 -0.4245 -0.2378
 3109DECAN   C931079   8.387  10.784  10.849  0.0449  0.3252  0.0376
 3109DECAN  C1031080   8.302  10.814  10.974  0.1311  0.0816  0.1551
 3110DECAN   C131081   7.176   1.326   5.103 -0.8745  0.1292 -0.0101
 3110DECAN   C231082   7.241   1.421   5.001 -0.5345 -0.3181 -0.2122
 3110DECAN   C331083   7.307   1.338   4.889  0.0058 -0.5645  0.2802
 3110DECAN   C431084   7.206   1.231   4.843 -0.8148  0.3408 -0.0503
 3110DECAN   C531085   7.181   1.129   4.956  0.3292  0.0774 -0.0221
 3110DECAN   C631086   7.099   1.010   4.903  0.5099 -0.3573  0.6799
 3110DECAN   C731087   7.035   0.923   5.014 -0.2230 -0.3810  0.2440
 3110DECAN   C831088   6.949   0.806   4.961  0.8298 -0.9594 -0.2223
 3110DECAN   C931089   6.889   0.730   5.081  0.5380 -0.5627 -0.1149
 3110DECAN  C1031090   6.816   0.600   5.042  0.1384 -0.2907 -0.2785
 3111DECAN   C131091   3.424   9.933  11.378  0.0376  0.1328  0.3834
 3111DECAN   C231092   3.377   9.973  11.519 -0.3887 -0.4809  0.4189
 3111DECAN   C331093   3.280   9.877  11.591 -0.5340 -0.3354  0.4178
 3111DECAN   C431094   3.176   9.946  11.681 -0.3048  0.3096  0.1936
 3111DECAN   C531095   3.239  10.020  11.800 -0.5105  0.3726  0.2634
 3111DECAN   C631096   3.149  10.026  11.925 -0.7151  0.6792  0.1036
 3111DECAN   C731097   3.211  10.085  12.053 -0.4232  0.1093  0.2329
 3111DECAN   C831098   3.115  10.106  12.172  0.0922  0.3748  0.6066
 3111DECAN   C931099   2.985  10.169  12.118 -0.1687 -0.5180  0.1676
 3111DECAN  C1031100   2.907  10.081  12.018  0.2707  0.0498 -0.6967
 3112DECAN   C131101   6.419   6.633   5.964  0.3091 -0.2779  0.5826
 3112DECAN   C231102   6.567   6.677   5.958  0.1070  0.3323 -0.0170
 3112DECAN   C331103   6.612   6.747   5.828  0.3670 -0.4239 -0.3392
 3112DECAN   C431104   6.765   6.752   5.810  0.3999 -0.0747  0.0156
 3112DECAN   C531105   6.785   6.854   5.697  0.4616  0.3940  0.4488
 3112DECAN   C631106   6.935   6.878   5.674  0.4003  0.4597  0.1139
 3112DECAN   C731107   6.971   7.001   5.587 -0.2497  0.1442 -0.6116
 3112DECAN   C831108   7.121   7.018   5.557  0.0111 -0.1184  0.5027
 3112DECAN   C931109   7.215   7.034   5.678  0.6700 -0.0952 -0.0063
 3112DECAN  C1031110   7.353   7.100   5.663  0.5024  0.4880  0.8732
 3113DECAN   C131111   8.829   5.971  13.745  0.4601 -0.0911  0.4088
 3113DECAN   C231112   8.860   5.901  13.879  0.1547 -0.1138  0.4685
 3113DECAN   C331113   8.899   6.004  13.986  0.0482  0.1057  0.2979
 3113DECAN   C431114   8.876   5.948  14.128 -0.3235 -0.2503  0.1008
 3113DECAN   C531115   8.934   6.029  14.246 -0.0576 -0.8546  0.3900
 3113DECAN   C631116   8.887   6.174  14.269  1.0849 -0.3868 -0.1444
 3113DECAN   C731117   8.945   6.242  14.394  0.0191 -0.1398  0.2222
 3113DECAN   C831118   8.954   6.395  14.393  0.2419 -0.1544 -0.0193
 3113DECAN   C931119   9.020   6.448  14.522  0.9429 -0.3799 -0.2822
 3113DECAN  C1031120   9.069   6.592  14.495 -0.2615  0.0929  0.0160
 3114DECAN   C131121   1.572   7.320   9.893  0.2680 -0.1192 -0.5691
 3114DECAN   C231122   1.625   7.449   9.959 -0.5497 -0.1957  0.2564
 3114DECAN   C331123   1.768   7.484   9.916 -0.5556 -0.5910 -0.0970
 3114DECAN   C431124   1.772   7.508   9.763 -0.2003 -0.9822 -0.1499
 3114DECAN   C531125   1.915   7.499   9.707 -0.2496 -0.4645 -0.3641
 3114DECAN   C631126   1.936   7.496   9.554 -0.0575  0.0579 -0.3503
 3114DECAN   C731127   2.084   7.461   9.527  0.0487  0.0559  0.2105
 3114DECAN   C831128   2.143   7.533   9.404 -0.1027 -0.4362 -0.1550
 3114DECAN   C931129   2.113   7.685   9.403  0.2109 -0.3714  0.0963
 3114DECAN  C1031130   1.965   7.726   9.390  0.2854  0.0760  0.6362
 3115DECAN   C131131  10.848   4.708   9.050  0.2174 -0.1487 -0.1041
 3115DECAN   C231132  10.914   4.581   9.108  0.0745 -0.0782  0.2151
 3115DECAN   C331133  11.037   4.524   9.035  0.3852  0.3462  0.4046
 3115DECAN   C431134  11.085   4.388   9.089 -0.4314 -0.0628  0.1236
 3115DECAN   C531135  10.992   4.266   9.097 -0.2196 -0.2552 -0.3147
 3115DECAN   C631136  11.067   4.133   9.107 -0.2217 -0.3011 -0.8430
 3115DECAN   C731137  10.978   4.008   9.116 -0.0623 -0.3375  0.4253
 3115DECAN   C831138  10.913   3.974   8.981 -0.1590  0.1633  0.3479
 3115DECAN   C931139  10.812   3.859   8.976  0.1413 -0.0839 -0.2141
 3115DECAN  C1031140  10.839   3.721   9.039 -0.4199 -0.1447 -0.0994
 3116DECAN   C131141   6.383   8.846  12.427  0.2497 -0.2550  0.2688
 3116DECAN   C231142   6.249   8.790  12.479 -0.1433  0.0802 -0.3796
 3116DECAN   C331143   6.194   8.685  12.380 -0.1785 -0.1894 -0.0744
 3116DECAN   C431144   6.070   8.612  12.436 -0.2361 -0.0988 -0.0834
 3116DECAN   C531145   5.969   8.708  12.502  0.6110  0.3361  0.5852
 3116DECAN   C631146   5.914   8.818  12.410 -0.3288 -0.2596  0.4194
 3116DECAN   C731147   5.796   8.907  12.455 -0.2517  0.1798 -0.2343
 3116DECAN   C831148   5.840   9.035  12.528  0.2350 -0.0365 -0.1442
 3116DECAN   C931149   5.720   9.128  12.551  0.8897  0.8260 -0.1466
 3116DECAN  C1031150   5.618   9.068  12.649  0.9721  0.3114 -0.3714
 3117DECAN   C131151   2.821   6.753   8.447  0.7701  0.2448  0.0523
 3117DECAN   C231152   2.876   6.627   8.377  0.2282  0.0850 -0.0899
 3117DECAN   C331153   2.775   6.572   8.274  0.2444 -0.8414  0.3842
 3117DECAN   C431154   2.832   6.462   8.183  0.5245 -0.0578 -0.3964
 3117DECAN   C531155   2.896   6.340   8.253  0.5622  0.0725 -0.2038
 3117DECAN   C631156   2.950   6.239   8.150  0.5189  0.3240 -0.4733
 3117DECAN   C731157   2.997   6.104   8.207  0.2721  0.2168 -0.5232
 3117DECAN   C831158   3.014   5.997   8.098 -0.1402 -0.1344 -0.2457
 3117DECAN   C931159   3.116   6.031   7.988  0.1174 -0.4889 -0.1208
 3117DECAN  C1031160   3.132   5.918   7.884  0.0641 -0.3798 -0.2484
 3118DECAN   C131161   6.331   2.378   7.037  0.7981  0.4293  0.1453
 3118DECAN   C231162   6.317   2.398   7.189 -0.1840 -0.2654  0.1574
 3118DECAN   C331163   6.191   2.331   7.247 -0.8523  0.5721 -0.3175
 3118DECAN   C431164   6.165   2.331   7.398  0.0197 -0.0444 -0.1628
 3118DECAN   C531165   6.192   2.467   7.467 -0.1196 -0.0855 -0.0268
 3118DECAN   C631166   6.143   2.487   7.612  0.0400  0.1206 -0.0014
 3118DECAN   C731167   6.192   2.619   7.674 -0.4752  0.4933 -0.3639
 3118DECAN   C831168   6.133   2.646   7.814  0.5470  0.1783  0.1421
 3118DECAN   C931169   6.197   2.765   7.886 -0.5096  0.8890 -0.0695
 3118DECAN  C1031170   6.321   2.727   7.970  0.0421  0.3794 -1.1052
 3119DECAN   C131171   2.531   7.862   4.558 -0.3004 -0.1869  0.1472
 3119DECAN   C231172   2.402   7.795   4.611 -0.2403 -0.0266  0.4979
 3119DECAN   C331173   2.431   7.645   4.594  0.1929  0.0418  0.6044
 3119DECAN   C431174   2.332   7.556   4.672 -0.1373 -0.3181 -0.2022
 3119DECAN   C531175   2.352   7.581   4.823 -0.4028 -0.1468 -0.1950
 3119DECAN   C631176   2.283   7.463   4.895 -0.2356 -0.0179  0.1795
 3119DECAN   C731177   2.294   7.471   5.048 -0.5638 -0.0962  0.2068
 3119DECAN   C831178   2.223   7.361   5.130 -0.2126 -0.2412  0.3190
 3119DECAN   C931179   2.069   7.363   5.123 -0.2145  0.1298  0.4807
 3119DECAN  C1031180   2.009   7.228   5.165  0.6574 -0.4037  0.0390
 3120DECAN   C131181   2.878   2.602  11.861 -0.9544  0.3479  0.0383
 3120DECAN   C231182   2.859   2.591  11.708 -0.0272  0.5417 -0.0961
 3120DECAN   C331183   2.990   2.613  11.630  0.0165  0.0020 -0.1786
 3120DECAN   C431184   2.988   2.636  11.478 -0.0253  0.3504 -0.1257
 3120DECAN   C531185   3.134   2.640  11.428 -0.1665  0.2124 -0.5556
 3120DECAN   C631186   3.149   2.649  11.275 -0.1675  0.9434 -0.5182
 3120DECAN   C731187   3.293   2.651  11.219 -0.1060 -0.1169 -0.4164
 3120DECAN   C831188   3.294   2.681  11.068  0.1889 -0.8846 -0.5733
 3120DECAN   C931189   3.432   2.706  11.004  0.2088  0.1098 -0.1686
 3120DECAN  C1031190   3.511   2.574  10.998  0.0785  0.0060  0.3746
 3121DECAN   C131191   2.323   3.165  14.700  0.1069  0.2212 -0.3488
 3121DECAN   C231192   2.387   3.212  14.832 -0.5598 -0.6220  0.2801
 3121DECAN   C331193   2.518   3.145  14.877 -0.2108 -0.2747 -0.2129
 3121DECAN   C431194   2.559   3.205  15.012  0.1008 -0.2211 -0.3318
 3121DECAN   C531195   2.605   3.352  15.008  0.2614 -0.2512  0.2065
 3121DECAN   C631196   2.506   3.466  14.977  0.4436  0.0380  0.6783
 3121DECAN   C731197   2.564   3.608  14.965 -0.0951  0.2120  0.0611
 3121DECAN   C831198   2.463   3.720  14.933  0.0342  0.2461 -0.2278
 3121DECAN   C931199   2.537   3.854  14.919  0.2241  0.1798  0.1397
 3121DECAN  C1031200   2.637   3.863  14.802 -0.4403  0.6139 -0.3975
 3122DECAN   C131201  10.798   5.113   8.882 -0.0711  0.3714  0.4618
 3122DECAN   C231202  10.657   5.170   8.903 -0.2542  0.1500 -0.1592
 3122DECAN   C331203  10.565   5.112   8.794  0.2087 -0.5931 -0.1584
 3122DECAN   C431204  10.414   5.142   8.808  0.4124  0.5767 -0.4162
 3122DECAN   C531205  10.323   5.098   8.693  0.7640 -0.4778 -0.3022
 3122DECAN   C631206  10.277   4.952   8.713  0.4717 -0.3783 -0.2334
 3122DECAN   C731207  10.179   4.899   8.607  0.1346  0.0646 -0.1461
 3122DECAN   C831208  10.196   4.763   8.536  0.2969  0.3112 -0.5835
 3122DECAN   C931209  10.089   4.732   8.430 -0.4305  0.1759  0.1742
 3122DECAN  C1031210  10.095   4.589   8.373 -0.1113  0.1179  0.3524
 3123DECAN   C131211   1.228   9.550  11.922 -0.1210 -0.1191  0.0038
 3123DECAN   C231212   1.269   9.676  12.001  0.0729 -0.1444 -0.0547
 3123DECAN   C331213   1.404   9.733  11.956  0.0238 -0.0911 -0.1316
 3123DECAN   C431214   1.519   9.632  11.972 -0.1112 -0.3382 -0.7221
 3123DECAN   C531215   1.651   9.686  11.912  0.1280 -0.1513 -0.0342
 3123DECAN   C631216   1.776   9.603  11.945  0.4431  0.5375  0.5318
 3123DECAN   C731217   1.909   9.649  11.883  0.0490 -0.0132 -0.7759
 3123DECAN   C831218   1.924   9.796  11.927  0.5159 -0.0590 -0.7760
 3123DECAN   C931219   2.071   9.841  11.911  0.4936  0.4028  0.2712
 3123DECAN  C1031220   2.085   9.978  11.980  0.0379  0.6031 -0.0271
 3124DECAN   C131221   5.850   8.777   7.815 -0.1748 -0.2758  0.5275
 3124DECAN   C231222   5.994   8.723   7.828  0.0025  0.0630 -0.0286
 3124DECAN   C331223   6.106   8.819   7.784 -0.3746  0.2180 -0.6628
 3124DECAN   C431224   6.240   8.744   7.789 -0.4643  0.0840 -0.1990
 3124DECAN   C531225   6.281   8.702   7.931 -0.4484  0.5935 -0.0499
 3124DECAN   C631226   6.201   8.576   7.969  0.1878  0.0941 -0.3376
 3124DECAN   C731227   6.199   8.543   8.120 -1.1508  0.2614 -0.3023
 3124DECAN   C831228   6.113   8.420   8.155 -0.2147 -0.1141  0.7274
 3124DECAN   C931229   6.142   8.375   8.299  0.7284 -0.3127  0.4832
 3124DECAN  C1031230   6.095   8.235   8.340  0.5130 -0.2431  0.4737
 3125DECAN   C131231   4.161  10.855   4.227 -0.6134  0.2785 -0.0069
 3125DECAN   C231232   4.270  10.962   4.251  0.5914 -0.8774 -0.1673
 3125DECAN   C331233   4.307  11.008   4.394 -0.1184  0.0160 -0.2577
 3125DECAN   C431234   4.404  11.126   4.387  0.5302 -0.5064 -0.1665
 3125DECAN   C531235   4.444  11.185   4.524 -0.2495  0.6703 -0.4252
 3125DECAN   C631236   4.560   0.041   4.511  0.3911  0.0457  0.3633
 3125DECAN   C731237   4.646   0.070   4.635  0.8850 -0.4840  0.1510
 3125DECAN   C831238   4.570   0.105   4.765  0.2237 -0.4461 -0.2460
 3125DECAN   C931239   4.645   0.160   4.887 -0.3681  0.5092 -0.3043
 3125DECAN  C1031240   4.579   0.146   5.026 -0.6360 -0.4346 -0.5234
 3126DECAN   C131241   6.078   3.066   7.699  0.2979 -0.5386  0.3093
 3126DECAN   C231242   6.121   3.177   7.796 -0.5892 -0.0127  0.1208
 3126DECAN   C331243   6.266   3.229   7.785 -0.7878  0.6116  0.4575
 3126DECAN   C431244   6.347   3.212   7.915  0.1377 -0.6765 -0.2630
 3126DECAN   C531245   6.487   3.275   7.913 -0.1397 -0.0382  0.0001
 3126DECAN   C631246   6.567   3.287   8.044  0.2814  0.3477 -0.2907
 3126DECAN   C731247   6.616   3.146   8.080 -0.3438  0.2284  0.1084
 3126DECAN   C831248   6.508   3.068   8.158 -0.3192 -0.0838 -0.1643
 3126DECAN   C931249   6.561   2.938   8.221  0.0605  0.0920 -0.1139
 3126DECAN  C1031250   6.696   2.955   8.293  0.0238 -1.1108  0.2537
 3127DECAN   C131251   8.132   3.883   8.552 -0.0041 -0.4526 -0.3808
 3127DECAN   C231252   8.156   3.911   8.702  0.1368 -0.3669 -0.4180
 3127DECAN   C331253   8.113   4.050   8.751 -0.1565 -0.3566 -0.7005
 3127DECAN   C431254   8.214   4.166   8.742 -0.1481 -0.2897  0.1686
 3127DECAN   C531255   8.191   4.289   8.832 -0.4269 -0.2190  0.0020
 3127DECAN   C631256   8.314   4.382   8.824 -0.4383 -0.1683  0.3688
 3127DECAN   C731257   8.430   4.371   8.925 -0.0123 -0.9148 -0.1860
 3127DECAN   C831258   8.551   4.454   8.878 -0.3426 -0.4273 -0.1811
 3127DECAN   C931259   8.650   4.470   8.995  0.0627  0.0544 -0.5891
 3127DECAN  C1031260   8.781   4.544   8.960 -0.3628  0.7411 -0.7428
 3128DECAN   C131261   4.292   8.542  12.078  0.5751  0.1632 -0.3063
 3128DECAN   C231262   4.224   8.653  11.996 -0.4270 -0.2325 -0.0266
 3128DECAN   C331263   4.303   8.702  11.873 -0.2545 -0.3106  0.0533
 3128DECAN   C431264   4.256   8.836  11.814  0.6482 -0.0134  0.0043
 3128DECAN   C531265   4.130   8.822  11.728  0.9634 -0.2264 -0.4265
 3128DECAN   C631266   4.112   8.948  11.641  0.1247 -0.2078 -0.2372
 3128DECAN   C731267   4.242   8.980  11.565  0.1428  0.2717 -0.0065
 3128DECAN   C831268   4.235   9.120  11.502 -0.3654  0.1774 -0.1662
 3128DECAN   C931269   4.200   9.233  11.601 -0.2362 -0.0298  0.1171
 3128DECAN  C1031270   4.194   9.370  11.530 -0.3838  0.1370  0.4515
 3129DECAN   C131271   9.875  11.044  13.108  1.1779  0.1428 -0.3731
 3129DECAN   C231272   9.855  11.196  13.096 -0.0746  0.0119 -0.0257
 3129DECAN   C331273   9.731  11.229  13.182 -0.0780 -0.0386 -0.0118
 3129DECAN   C431274   9.608  11.168  13.111 -0.6582  0.2103  0.7575
 3129DECAN   C531275   9.594  11.015  13.124 -0.4956  0.1580  0.3459
 3129DECAN   C631276   9.459  10.955  13.081 -0.6278  0.1525  0.7605
 3129DECAN   C731277   9.457  10.802  13.097 -0.2429  0.0644  0.0301
 3129DECAN   C831278   9.569  10.720  13.031 -0.5074  0.0214 -0.3662
 3129DECAN   C931279   9.586  10.748  12.881 -0.5539  0.0795 -0.3609
 3129DECAN  C1031280   9.474  10.683  12.797 -0.5218  0.1270 -0.4405
 3130DECAN   C131281   4.418   3.179  13.424 -0.2233  1.1602 -0.4140
 3130DECAN   C231282   4.288   3.155  13.346 -0.8444  0.4371  0.8041
 3130DECAN   C331283   4.209   3.277  13.295  0.0107  0.4493 -0.5537
 3130DECAN   C431284   4.098   3.232  13.198 -0.2716 -0.3974  0.1477
 3130DECAN   C531285   3.999   3.337  13.144 -0.1348 -0.2195  0.2423
 3130DECAN   C631286   3.873   3.270  13.087  0.0297 -0.0148 -0.3711
 3130DECAN   C731287   3.744   3.352  13.096  0.0842  0.0523 -0.2054
 3130DECAN   C831288   3.621   3.260  13.084 -0.4198  0.5703  0.8738
 3130DECAN   C931289   3.604   3.160  13.200 -0.1360  0.1702  0.5718
 3130DECAN  C1031290   3.482   3.067  13.208 -0.5077  0.6355  0.3887
 3131DECAN   C131291   9.315   2.325  13.062  0.1540  0.1925  0.0579
 3131DECAN   C231292   9.224   2.382  13.172 -0.1256 -0.0906 -0.0229
 3131DECAN   C331293   9.235   2.534  13.195 -0.1002 -0.0972  0.0077
 3131DECAN   C431294   9.127   2.604  13.280  0.2314  0.5909 -0.1316
 3131DECAN   C531295   9.152   2.750  13.323  0.2208  0.6929 -0.4666
 3131DECAN   C631296   9.102   2.790  13.463  0.1357  0.0906 -0.3213
 3131DECAN   C731297   8.949   2.780  13.462  0.1255  0.2194 -0.1231
 3131DECAN   C831298   8.883   2.646  13.427  0.0082  0.2831 -0.1489
 3131DECAN   C931299   8.730   2.636  13.414  0.0189  0.0265 -0.0981
 3131DECAN  C1031300   8.673   2.722  13.299 -0.6804  0.2163  0.3816
 3132DECAN   C131301   7.118  10.277   5.665  0.3491  0.2332  0.0270
 3132DECAN   C231302   7.172  10.212   5.794  0.3517 -0.0913 -0.1374
 3132DECAN   C331303   7.119  10.263   5.929 -0.3239 -0.1418 -0.3802
 3132DECAN   C431304   7.182  10.172   6.036 -0.4059 -0.6048 -0.7212
 3132DECAN   C531305   7.090  10.150   6.158 -0.4494  0.7217 -0.5006
 3132DECAN   C631306   6.957  10.083   6.121 -0.0358 -0.6914  0.4780
 3132DECAN   C731307   6.837  10.179   6.107  0.4260 -0.1224  0.3943
 3132DECAN   C831308   6.762  10.222   6.235 -0.1939  0.1292 -0.0470
 3132DECAN   C931309   6.812  10.359   6.284  0.5293 -0.2163  0.1925
 3132DECAN  C1031310   6.784  10.379   6.434  0.5800 -0.1241  0.1895
 3133DECAN   C131311  10.355   6.863   7.251 -0.0703 -0.4254 -0.1863
 3133DECAN   C231312  10.399   7.007   7.283 -0.6452 -0.2683 -0.1037
 3133DECAN   C331313  10.523   7.043   7.200 -0.4319 -0.3876  0.1633
 3133DECAN   C431314  10.637   6.940   7.191 -0.0668  0.0282  0.0133
 3133DECAN   C531315  10.569   6.811   7.144 -0.1744 -0.0703  0.4365
 3133DECAN   C631316  10.669   6.694   7.141 -0.3003 -0.1699 -0.0564
 3133DECAN   C731317  10.631   6.568   7.061  0.3228 -0.3213 -0.1201
 3133DECAN   C831318  10.747   6.466   7.068  0.7672  0.1823 -0.0427
 3133DECAN   C931319  10.710   6.326   7.015 -0.2434  0.3553  0.1842
 3133DECAN  C1031320  10.639   6.244   7.125 -0.7497  0.2522 -0.2179
 3134DECAN   C131321   4.329   4.488  12.561 -0.1373 -0.3602 -0.1732
 3134DECAN   C231322   4.195   4.544  12.613 -0.0170 -0.5014  0.2948
 3134DECAN   C331323   4.082   4.441  12.625  0.0532 -0.6577 -0.3354
 3134DECAN   C431324   4.060   4.373  12.488 -0.9187  0.3644 -0.7019
 3134DECAN   C531325   3.946   4.270  12.497 -0.7599  0.2499  0.1232
 3134DECAN   C631326   3.904   4.205  12.364 -0.7348  0.0138  0.2315
 3134DECAN   C731327   3.860   4.057  12.371  0.3659 -0.3399  0.0063
 3134DECAN   C831328   3.974   3.956  12.387  0.3704 -0.3627 -0.1661
 3134DECAN   C931329   3.935   3.814  12.342  0.0898 -0.4539  0.3583
 3134DECAN  C1031330   4.037   3.701  12.359  0.2134 -0.4307 -0.1936
 3135DECAN   C131331   4.876   6.706   8.551  0.1293 -0.3048  0.0052
 3135DECAN   C231332   5.014   6.771   8.573  0.1125 -0.3000  0.0961
 3135DECAN   C331333   5.110   6.746   8.454  0.0287  0.1066 -0.0615
 3135DECAN   C431334   5.126   6.594   8.430  0.2757  0.1047  0.1074
 3135DECAN   C531335   5.199   6.533   8.309 -0.0057 -0.2540  0.1171
 3135DECAN   C631336   5.208   6.380   8.298  0.2344 -0.2102 -0.3309
 3135DECAN   C731337   5.283   6.308   8.412  0.5655  0.6600  0.0043
 3135DECAN   C831338   5.297   6.156   8.398  0.1054  0.6326 -0.1549
 3135DECAN   C931339   5.296   6.071   8.526 -0.1952  0.6634 -0.1356
 3135DECAN  C1031340   5.155   6.048   8.583  0.0290  0.4028  0.3234
 3136DECAN   C131341   4.039   1.853   5.429 -0.1794  0.3770 -0.0866
 3136DECAN   C231342   3.964   1.862   5.295  0.0073  0.1851 -0.2031
 3136DECAN   C331343   3.907   1.731   5.237  0.0561  0.0952 -0.0499
 3136DECAN   C431344   3.825   1.742   5.107  0.1249  0.1365 -0.0895
 3136DECAN   C531345   3.790   1.605   5.046 -0.2581  0.2387 -0.1035
 3136DECAN   C631346   3.663   1.537   5.100  0.1120 -0.1672  0.2602
 3136DECAN   C731347   3.597   1.434   5.006 -0.1164 -0.0993  0.3454
 3136DECAN   C831348   3.475   1.355   5.056  0.3336 -0.5779  0.6981
 3136DECAN   C931349   3.415   1.251   4.960 -0.2178  0.0851  0.3184
 3136DECAN  C1031350   3.338   1.131   5.016  0.2281 -0.2787  0.1540
 3137DECAN   C131351   5.860   1.017   6.404 -0.1734 -0.4775 -0.3156
 3137DECAN   C231352   5.803   0.947   6.528 -0.0063 -0.0707 -0.0069
 3137DECAN   C331353   5.713   1.032   6.621  0.4238  0.0185  0.3335
 3137DECAN   C431354   5.647   0.941   6.726  0.3506 -0.1427  0.1493
 3137DECAN   C531355   5.543   1.022   6.806  0.2789 -0.4935  0.4155
 3137DECAN   C631356   5.443   0.939   6.887 -0.1256 -0.7567 -0.3407
 3137DECAN   C731357   5.345   1.024   6.970  0.3403 -0.4439 -0.1126
 3137DECAN   C831358   5.241   0.938   7.044  0.4365 -0.1139  0.4188
 3137DECAN   C931359   5.290   0.871   7.173  0.2366 -0.3440  0.3764
 3137DECAN  C1031360   5.188   0.780   7.243  0.1498 -0.6021 -0.0810
 3138DECAN   C131361   8.864   3.057  14.108  0.2229  0.2434  0.2543
 3138DECAN   C231362   8.964   2.942  14.084 -0.0102  0.1300 -0.1946
 3138DECAN   C331363   8.930   2.847  13.969  0.4759 -0.1040 -0.1478
 3138DECAN   C431364   8.788   2.789  13.984  0.4370  0.0206 -0.0476
 3138DECAN   C531365   8.742   2.715  13.857  0.0265  0.1606  0.0165
 3138DECAN   C631366   8.606   2.648  13.877 -0.5073  1.0049 -0.6906
 3138DECAN   C731367   8.578   2.523  13.792 -0.3924  0.6797 -0.2587
 3138DECAN   C831368   8.461   2.433  13.834 -0.0726  0.1843 -0.4174
 3138DECAN   C931369   8.325   2.499  13.804 -0.5144 -0.6420 -0.2753
 3138DECAN  C1031370   8.312   2.643  13.859  0.8578 -0.7008  0.2443
 3139DECAN   C131371   4.048   1.826   5.849 -0.2412  0.1666 -0.6382
 3139DECAN   C231372   4.020   1.962   5.915  0.4611  0.2924 -0.5871
 3139DECAN   C331373   4.018   2.069   5.805 -0.4001 -0.0329 -0.8970
 3139DECAN   C431374   3.981   2.205   5.868 -0.0886 -0.5088  0.3361
 3139DECAN   C531375   4.012   2.318   5.768  0.1716 -0.6392  0.2680
 3139DECAN   C631376   4.146   2.302   5.695  0.1242 -0.0346  0.0483
 3139DECAN   C731377   4.183   2.422   5.605  0.3771 -0.2857 -0.1842
 3139DECAN   C831378   4.205   2.558   5.674 -0.0098 -0.3896  0.1518
 3139DECAN   C931379   4.075   2.622   5.725  0.2789  0.5890 -0.3167
 3139DECAN  C1031380   4.095   2.764   5.780  0.5147  0.6125 -0.4615
 3140DECAN   C131381   7.338   7.229   3.863  0.0243 -0.2905  0.1064
 3140DECAN   C231382   7.273   7.091   3.841 -0.0293 -0.2350 -0.0816
 3140DECAN   C331383   7.160   7.044   3.934 -0.2335 -0.1977 -0.3109
 3140DECAN   C431384   7.110   6.899   3.927 -0.1666 -0.2534  0.3230
 3140DECAN   C531385   6.988   6.863   4.014 -0.2941  0.4125  0.4252
 3140DECAN   C631386   6.905   6.738   3.981 -0.0093  0.0932  0.9051
 3140DECAN   C731387   6.787   6.718   4.079 -0.3078  0.0348  0.5368
 3140DECAN   C831388   6.740   6.572   4.070  0.2134 -0.1635  1.0136
 3140DECAN   C931389   6.850   6.477   4.122  0.4172 -0.5275 -0.0611
 3140DECAN  C1031390   6.812   6.328   4.118  0.1289 -0.4444 -0.5924
 3141DECAN   C131391   6.827   3.734   8.475 -0.3994  0.7951  0.0399
 3141DECAN   C231392   6.750   3.623   8.401  0.0231  0.5208  0.0092
 3141DECAN   C331393   6.678   3.516   8.486 -0.1862  0.5610 -0.1169
 3141DECAN   C431394   6.596   3.423   8.395  0.0045  0.1046  0.1765
 3141DECAN   C531395   6.522   3.309   8.467 -0.0469 -0.0942 -0.1863
 3141DECAN   C631396   6.615   3.217   8.548  0.1774  0.2071 -0.0969
 3141DECAN   C731397   6.547   3.092   8.608  0.2253  0.1375 -0.1870
 3141DECAN   C831398   6.456   3.113   8.731  0.3250 -0.0572 -0.0791
 3141DECAN   C931399   6.328   3.190   8.694  0.5760  0.1234 -0.5887
 3141DECAN  C1031400   6.252   3.224   8.824  0.2747 -0.2451 -0.6641
 3142DECAN   C131401   7.347   9.931   6.328 -1.0303 -0.5214  0.3099
 3142DECAN   C231402   7.432  10.015   6.425 -0.1146 -0.3528 -0.6146
 3142DECAN   C331403   7.437  10.169   6.431  0.0638 -0.3944  0.8980
 3142DECAN   C431404   7.320  10.239   6.502 -0.6844 -0.0416 -0.6235
 3142DECAN   C531405   7.321  10.390   6.471  0.2000  0.0034 -0.4147
 3142DECAN   C631406   7.277  10.420   6.327  0.1233  0.0066 -0.3910
 3142DECAN   C731407   7.276  10.569   6.290  0.0981  0.0226 -0.3216
 3142DECAN   C831408   7.239  10.593   6.142 -0.3066  0.0879 -0.2125
 3142DECAN   C931409   7.248  10.741   6.101  0.1478  0.3114  0.6721
 3142DECAN  C1031410   7.112  10.812   6.103 -0.2622 -0.4122 -0.4859
 3143DECAN   C131411   4.368   8.794   5.276 -0.6889 -0.1466 -0.7956
 3143DECAN   C231412   4.358   8.659   5.350 -0.2988 -0.2697 -0.9638
 3143DECAN   C331413   4.410   8.544   5.262  0.7660 -0.3140 -0.2884
 3143DECAN   C431414   4.409   8.411   5.340 -0.2801 -0.1270  0.0279
 3143DECAN   C531415   4.480   8.291   5.275 -0.3419 -0.3526  0.3722
 3143DECAN   C631416   4.512   8.168   5.362 -0.3915 -0.3727  0.3621
 3143DECAN   C731417   4.637   8.191   5.448 -0.3660  0.1168  0.2024
 3143DECAN   C831418   4.669   8.059   5.522  0.1420  0.0197 -0.1822
 3143DECAN   C931419   4.799   8.066   5.605 -0.1853  0.1100  0.3268
 3143DECAN  C1031420   4.796   8.175   5.714 -0.5717 -0.3985  0.8300
 3144DECAN   C131421   5.801   4.235  10.422 -0.1373 -0.6522  0.6475
 3144DECAN   C231422   5.656   4.210  10.376 -0.1172 -0.4123  0.4491
 3144DECAN   C331423   5.577   4.339  10.406 -0.0921 -0.2465 -0.2032
 3144DECAN   C431424   5.424   4.326  10.406 -0.0907 -0.2550  0.0311
 3144DECAN   C531425   5.337   4.453  10.403 -0.3323 -0.4253 -0.1302
 3144DECAN   C631426   5.270   4.490  10.268 -0.5670 -0.5057 -0.0369
 3144DECAN   C731427   5.186   4.618  10.258  0.4698  0.1683 -0.3516
 3144DECAN   C831428   5.046   4.584  10.314  0.2780  0.4440 -0.6545
 3144DECAN   C931429   4.960   4.706  10.352 -0.3385 -0.3883  0.6997
 3144DECAN  C1031430   4.818   4.658  10.388 -0.4100 -0.1922  0.6757
 3145DECAN   C131431   3.952   7.147  13.191 -0.4910  0.1798  0.1953
 3145DECAN   C231432   4.012   7.007  13.166  0.0478  0.4548 -0.0498
 3145DECAN   C331433   3.921   6.890  13.206  0.7939 -0.2015 -0.2326
 3145DECAN   C431434   3.991   6.755  13.231  0.1819 -0.4742  0.0245
 3145DECAN   C531435   3.900   6.640  13.279 -0.1873 -0.1691  0.0646
 3145DECAN   C631436   3.987   6.514  13.270  0.1413  0.0811 -0.2838
 3145DECAN   C731437   3.930   6.405  13.362  0.3916 -0.0842 -0.3215
 3145DECAN   C831438   3.934   6.449  13.509 -0.6018  0.4746 -0.4514
 3145DECAN   C931439   3.872   6.358  13.617 -0.0827  0.2556 -0.3362
 3145DECAN  C1031440   3.879   6.412  13.761 -0.7106  0.3720 -0.3473
 3146DECAN   C131441   3.190   1.571  10.697  0.5299 -0.0665  0.0126
 3146DECAN   C231442   3.210   1.722  10.724 -0.5882  0.1913 -0.5876
 3146DECAN   C331443   3.353   1.766  10.691 -0.4006  0.6608  0.8009
 3146DECAN   C431444   3.456   1.671  10.754 -0.0841 -0.0823 -0.7815
 3146DECAN   C531445   3.606   1.707  10.754 -0.1096  0.0367 -0.1177
 3146DECAN   C631446   3.678   1.707  10.618  0.0008 -0.3285 -0.0628
 3146DECAN   C731447   3.648   1.831  10.531  0.1406 -0.5346 -0.4059
 3146DECAN   C831448   3.725   1.833  10.398 -0.1920  0.2159 -0.5912
 3146DECAN   C931449   3.844   1.929  10.380  0.0712 -0.0062 -0.0542
 3146DECAN  C1031450   3.884   1.932  10.231  0.5241  0.0817  0.0663
 3147DECAN   C131451   7.365   9.811   9.219  0.2081 -0.2175  0.1338
 3147DECAN   C231452   7.411   9.711   9.328 -0.3001 -0.1987  0.3671
 3147DECAN   C331453   7.357   9.570   9.301 -0.7826  0.0354  0.0931
 3147DECAN   C431454   7.403   9.456   9.394 -0.0191  0.3389  0.0878
 3147DECAN   C531455   7.376   9.479   9.544  0.1202  0.0569  0.1564
 3147DECAN   C631456   7.427   9.357   9.623  0.5604  0.0844 -0.0798
 3147DECAN   C731457   7.383   9.360   9.770 -0.0805  0.4969 -0.2738
 3147DECAN   C831458   7.434   9.252   9.869  0.7272  0.7713 -0.3864
 3147DECAN   C931459   7.367   9.258  10.007  0.6625  0.3807 -0.4021
 3147DECAN  C1031460   7.423   9.152  10.104  0.2562  0.5264 -0.0015
 3148DECAN   C131461   2.618   3.087   6.487 -0.2786 -0.1095  0.2042
 3148DECAN   C231462   2.482   3.088   6.558 -0.3457  0.3782  0.0678
 3148DECAN   C331463   2.491   3.082   6.712  0.1030  0.1144  0.0309
 3148DECAN   C431464   2.546   2.948   6.764 -0.4779 -0.1843 -0.1157
 3148DECAN   C531465   2.585   2.964   6.912 -0.0483  0.1928 -0.2670
 3148DECAN   C631466   2.668   3.085   6.957 -0.2336  0.1414  0.2146
 3148DECAN   C731467   2.714   3.070   7.103  0.0447 -0.3256  0.0801
 3148DECAN   C831468   2.786   3.195   7.159  0.2332 -0.3040 -0.2091
 3148DECAN   C931469   2.877   3.154   7.276  0.1812 -0.2233 -0.1402
 3148DECAN  C1031470   2.972   3.268   7.315  0.5084 -0.4790 -0.1857
 3149DECAN   C131471   1.241  10.001   8.226  0.3013  0.0444 -0.0866
 3149DECAN   C231472   1.307   9.863   8.207 -0.6482 -0.4283  0.0217
 3149DECAN   C331473   1.251   9.766   8.313 -0.1669  0.0823  0.7548
 3149DECAN   C431474   1.114   9.707   8.274 -0.0123  0.0090  0.3139
 3149DECAN   C531475   1.096   9.588   8.370 -0.2157  0.0514  0.3275
 3149DECAN   C631476   1.185   9.465   8.348 -0.4781 -0.0444 -0.2284
 3149DECAN   C731477   1.205   9.365   8.463  0.0575  0.0090 -0.2727
 3149DECAN   C831478   1.309   9.256   8.428  0.1711 -0.0782  0.3164
 3149DECAN   C931479   1.273   9.168   8.307  0.4926  0.1647  0.0414
 3149DECAN  C1031480   1.398   9.107   8.239  0.2818 -0.4652  0.2156
 3150DECAN   C131481   9.023   3.106   9.861 -0.9104  0.0854  0.4421
 3150DECAN   C231482   8.957   3.036   9.741  0.6252 -0.3238 -0.1815
 3150DECAN   C331483   8.827   2.966   9.785  0.2507  0.3374 -0.2369
 3150DECAN   C431484   8.760   2.897   9.665 -0.4419 -0.1546  0.4196
 3150DECAN   C531485   8.838   2.768   9.634 -0.3035  0.1002 -0.3301
 3150DECAN   C631486   8.774   2.681   9.525 -0.1306 -0.4165 -0.0210
 3150DECAN   C731487   8.849   2.546   9.521 -0.0223 -0.3584  0.0850
 3150DECAN   C831488   8.797   2.455   9.409 -0.3385  0.3331 -0.3361
 3150DECAN   C931489   8.644   2.444   9.395 -0.3146 -0.4756 -0.0345
 3150DECAN  C1031490   8.591   2.358   9.279  0.5804 -0.5746 -0.3760
 3151DECAN   C131491   5.949   4.910  12.359 -0.2650 -0.3105 -0.4944
 3151DECAN   C231492   5.831   4.811  12.361 -0.3390 -0.2193 -0.3030
 3151DECAN   C331493   5.698   4.865  12.418 -0.3881  0.2948 -0.8835
 3151DECAN   C431494   5.579   4.767  12.412  0.1841 -0.5175  0.4163
 3151DECAN   C531495   5.442   4.837  12.421  0.2251 -0.3660 -0.0629
 3151DECAN   C631496   5.327   4.735  12.437 -0.2179  0.1577  0.1463
 3151DECAN   C731497   5.307   4.649  12.311  0.7698  0.7377 -0.4221
 3151DECAN   C831498   5.411   4.541  12.276 -0.0730 -0.1038 -0.3673
 3151DECAN   C931499   5.359   4.431  12.181 -0.0682  0.1523 -0.6690
 3151DECAN  C1031500   5.447   4.308  12.153 -0.4319 -0.1788 -0.3726
 3152DECAN   C131501   5.615   8.692   4.121 -0.2562 -0.0712  0.4363
 3152DECAN   C231502   5.553   8.763   3.999 -0.2393 -0.4017  0.2325
 3152DECAN   C331503   5.401   8.783   4.019 -0.3029  0.0931 -0.6984
 3152DECAN   C431504   5.310   8.660   4.005 -0.1922 -0.0847  0.0943
 3152DECAN   C531505   5.162   8.688   3.971 -0.0132  0.2478 -0.4234
 3152DECAN   C631506   5.081   8.558   3.958 -0.4279  0.4425  0.1576
 3152DECAN   C731507   4.930   8.586   3.949 -0.4953  0.0208 -0.0898
 3152DECAN   C831508   4.839   8.468   3.988 -0.0195 -0.0163  0.9469
 3152DECAN   C931509   4.697   8.525   4.000 -0.1361 -0.2038  0.4471
 3152DECAN  C1031510   4.600   8.409   4.029 -0.3187 -0.3046 -0.5080
 3153DECAN   C131511   7.937   2.257   8.776  0.4517 -0.0576  0.2816
 3153DECAN   C231512   8.057   2.268   8.680  0.3867  0.3462  0.2456
 3153DECAN   C331513   8.092   2.148   8.590  0.1782  0.1248  0.4589
 3153DECAN   C431514   8.208   2.167   8.491  0.1000 -0.9832  0.1430
 3153DECAN   C531515   8.178   2.234   8.355  0.0984 -0.6817  0.2907
 3153DECAN   C631516   8.305   2.265   8.274 -0.1027 -0.4735  0.0523
 3153DECAN   C731517   8.275   2.347   8.147  0.0846 -0.2617  0.1457
 3153DECAN   C831518   8.253   2.499   8.157 -0.3374 -0.3051 -0.1095
 3153DECAN   C931519   8.214   2.562   8.022  0.1489 -0.3851 -0.2921
 3153DECAN  C1031520   8.189   2.714   8.027 -0.4548 -0.4907  0.0657
 3154DECAN   C131521   3.993   3.539   8.940  0.2114  0.0116  0.0240
 3154DECAN   C231522   3.872   3.593   9.018  0.0580 -0.0170 -0.1915
 3154DECAN   C331523   3.777   3.483   9.068  0.0566  0.4608  0.8872
 3154DECAN   C431524   3.671   3.539   9.165 -0.0500  0.3411  0.8385
 3154DECAN   C531525   3.567   3.435   9.211  0.5977 -0.6766  0.0585
 3154DECAN   C631526   3.486   3.496   9.328  0.2778 -0.1772 -0.4160
 3154DECAN   C731527   3.568   3.528   9.454 -0.1119 -0.1170 -0.1761
 3154DECAN   C831528   3.490   3.576   9.578 -0.1589  0.1051 -0.2920
 3154DECAN   C931529   3.442   3.721   9.558  0.3339  0.3510  0.2878
 3154DECAN  C1031530   3.331   3.757   9.659  0.1168  0.3801  0.0385
 3155DECAN   C131531   6.748   3.293  11.019 -0.0479  0.4804  0.0023
 3155DECAN   C231532   6.643   3.261  11.127 -0.1075 -0.3956 -0.3088
 3155DECAN   C331533   6.696   3.313  11.262 -0.4563 -0.2222 -0.2378
 3155DECAN   C431534   6.730   3.463  11.256  0.6245 -0.4475  0.1272
 3155DECAN   C531535   6.761   3.533  11.389  0.3811  0.0208 -0.0623
 3155DECAN   C631536   6.649   3.529  11.495  0.3044 -0.8736 -0.1767
 3155DECAN   C731537   6.703   3.567  11.634 -0.1796  0.7613 -0.4122
 3155DECAN   C831538   6.624   3.510  11.753  0.4001  0.0905 -0.3391
 3155DECAN   C931539   6.589   3.360  11.750  0.1924  0.1104  0.5732
 3155DECAN  C1031540   6.442   3.349  11.708  0.4901 -0.6233 -0.3284
 3156DECAN   C131541   7.721   4.559   6.439  0.0846 -0.4675  0.2349
 3156DECAN   C231542   7.681   4.592   6.294  0.5586 -0.7835  0.0299
 3156DECAN   C331543   7.802   4.651   6.220  0.3125  0.4645  0.5901
 3156DECAN   C431544   7.774   4.684   6.072  0.2175 -0.1157  0.4767
 3156DECAN   C531545   7.901   4.685   5.986  0.0478 -0.0601  0.2230
 3156DECAN   C631546   7.884   4.727   5.839 -0.2022 -0.5051  0.1246
 3156DECAN   C731547   8.020   4.722   5.768 -0.2702  0.0658 -0.0447
 3156DECAN   C831548   8.125   4.777   5.867  0.2732  0.4683 -0.8346
 3156DECAN   C931549   8.262   4.782   5.797  0.7862 -0.3987  0.0886
 3156DECAN  C1031550   8.375   4.863   5.864  0.5255 -0.2075  0.3002
 3157DECAN   C131551   3.927   0.032  13.779 -0.7427  0.2241  0.6503
 3157DECAN   C231552   3.780   0.032  13.824 -0.8455 -0.0289  0.3198
 3157DECAN   C331553   3.736   0.176  13.856 -0.4770  0.2275 -0.3024
 3157DECAN   C431554   3.586   0.194  13.888 -0.3830  0.0053  0.2788
 3157DECAN   C531555   3.562   0.322  13.969 -0.1251  0.2580 -0.0423
 3157DECAN   C631556   3.414   0.346  14.004 -0.0921  0.3019  0.0678
 3157DECAN   C731557   3.393   0.467  14.097 -0.5330  0.1628  0.1511
 3157DECAN   C831558   3.454   0.602  14.056 -0.3838 -0.0280 -0.2553
 3157DECAN   C931559   3.457   0.731  14.140  0.3327  0.1598 -0.5602
 3157DECAN  C1031560   3.552   0.702  14.258 -0.2320  0.8886  0.0789
 3158DECAN   C131561   3.554  10.525   7.037  0.1908 -0.0828  0.0955
 3158DECAN   C231562   3.518  10.657   7.107  0.1214 -0.1757  0.2349
 3158DECAN   C331563   3.534  10.790   7.032 -0.8486 -0.0695  0.2077
 3158DECAN   C431564   3.496  10.925   7.097  0.0558  0.1802  0.2320
 3158DECAN   C531565   3.485  11.056   7.018 -0.0113  0.0981  0.1053
 3158DECAN   C631566   3.415  11.048   6.881 -0.2657  0.1260  0.2344
 3158DECAN   C731567   3.263  11.034   6.902 -0.4333  0.6077 -0.6122
 3158DECAN   C831568   3.223  10.915   6.991  0.2217  0.4105 -0.5789
 3158DECAN   C931569   3.070  10.906   6.975  0.2025 -0.7407  0.1026
 3158DECAN  C1031570   3.012  10.904   6.833  0.0272  0.0783  0.1553
 3159DECAN   C131571   5.032   2.740   6.257  0.0376 -0.1695  0.3042
 3159DECAN   C231572   4.935   2.827   6.340 -0.1078  0.1179 -0.1623
 3159DECAN   C331573   4.799   2.761   6.367 -0.1585  0.2939  0.0105
 3159DECAN   C431574   4.680   2.858   6.366 -0.4358 -0.0430 -0.5533
 3159DECAN   C531575   4.700   2.981   6.457  0.5410 -0.6246  0.0400
 3159DECAN   C631576   4.823   3.056   6.401 -0.0949  0.0159 -0.5296
 3159DECAN   C731577   4.841   3.197   6.460  0.0899 -0.1808 -0.1074
 3159DECAN   C831578   4.969   3.268   6.411  0.2635 -0.0198  0.5659
 3159DECAN   C931579   4.980   3.416   6.451  0.3756  0.2933 -0.5924
 3159DECAN  C1031580   5.114   3.485   6.417  0.3090  0.7289  0.0150
 3160DECAN   C131581   4.231   8.004   9.441 -0.4832 -0.2374  0.1307
 3160DECAN   C231582   4.241   7.946   9.583 -0.0067  0.4928  0.3973
 3160DECAN   C331583   4.131   7.985   9.684 -0.2193 -0.0418  0.3728
 3160DECAN   C431584   3.994   7.960   9.618  0.2029 -0.4670 -0.3579
 3160DECAN   C531585   3.951   8.025   9.485 -0.0222 -0.3277 -0.2168
 3160DECAN   C631586   3.810   7.982   9.439  0.3216 -0.8789 -0.7683
 3160DECAN   C731587   3.777   8.029   9.297  0.6619  0.0970 -0.5300
 3160DECAN   C831588   3.636   7.997   9.244  0.3785  0.2698  0.1064
 3160DECAN   C931589   3.516   8.066   9.312  0.3763 -0.2858  0.6704
 3160DECAN  C1031590   3.505   8.217   9.285 -0.1361 -0.4822 -0.2790
 3161DECAN   C131591  11.064   0.363   9.414 -0.1171  0.0876 -0.1176
 3161DECAN   C231592  11.067   0.445   9.283  0.3453 -0.0460 -0.1901
 3161DECAN   C331593  10.973   0.383   9.178 -0.0217 -0.2393  0.2495
 3161DECAN   C431594  10.954   0.464   9.049  0.2496 -0.2155  0.2231
 3161DECAN   C531595  10.847   0.410   8.953 -0.0491  0.4627  0.1708
 3161DECAN   C631596  10.815   0.482   8.820  0.3399 -0.1721 -0.2714
 3161DECAN   C731597  10.928   0.486   8.715  0.5088 -0.5296 -0.1035
 3161DECAN   C831598  10.878   0.554   8.586  0.0735 -0.0400  0.3176
 3161DECAN   C931599  10.984   0.547   8.475 -0.4191 -0.4441 -0.1315
 3161DECAN  C1031600  11.114   0.623   8.508 -0.2995 -0.6617 -0.0999
 3162DECAN   C131601   4.576   7.020  11.388 -0.3458  0.7809  0.3703
 3162DECAN   C231602   4.661   6.955  11.498  0.1505  0.4378 -0.2088
 3162DECAN   C331603   4.815   6.958  11.507  0.2089 -0.5717 -0.6642
 3162DECAN   C431604   4.870   6.908  11.642 -0.0130  0.4628 -0.1718
 3162DECAN   C531605   4.792   6.944  11.770 -0.6118  0.0372 -0.4089
 3162DECAN   C631606   4.874   6.940  11.900 -0.3546 -0.5508 -0.5868
 3162DECAN   C731607   4.924   6.806  11.957 -0.6835 -0.5417 -0.2716
 3162DECAN   C831608   5.025   6.811  12.073 -0.1661 -0.4277 -0.7258
 3162DECAN   C931609   5.069   6.677  12.135 -0.3512  0.0558  0.4809
 3162DECAN  C1031610   5.185   6.685  12.235  0.3229 -0.1782 -0.2744
 3163DECAN   C131611   7.301   8.300  15.183  0.0102  0.0149  0.0055
 3163DECAN   C231612   7.197   8.340  15.077  0.0336 -0.1766 -0.0908
 3163DECAN   C331613   7.134   8.237  14.982  0.1401 -0.1533 -0.1866
 3163DECAN   C431614   7.238   8.150  14.909  0.3396  0.2624 -0.3991
 3163DECAN   C531615   7.341   8.101  15.012  0.0177 -0.0456 -0.2237
 3163DECAN   C631616   7.444   7.994  14.970 -0.1083 -0.2215 -0.0840
 3163DECAN   C731617   7.555   7.976  15.075 -0.4459  0.2495  0.3656
 3163DECAN   C831618   7.660   7.867  15.045 -0.5276  0.1877  0.3023
 3163DECAN   C931619   7.774   7.892  15.146  0.0451  0.4303 -0.3973
 3163DECAN  C1031620   7.856   8.020  15.125  0.6702  0.0883 -0.0817
 3164DECAN   C131621   2.191   8.370   9.058  0.0626  0.0905  0.3997
 3164DECAN   C231622   2.270   8.500   9.081 -0.1002  0.3631 -0.5416
 3164DECAN   C331623   2.378   8.522   8.973  0.1639  0.0469 -0.3435
 3164DECAN   C431624   2.457   8.655   8.966 -0.2932  0.3368 -0.0688
 3164DECAN   C531625   2.552   8.667   9.087 -0.0492 -0.5300 -0.1642
 3164DECAN   C631626   2.689   8.599   9.075  0.2673 -0.0526  0.6810
 3164DECAN   C731627   2.775   8.621   9.201  0.1180  0.2941  0.7255
 3164DECAN   C831628   2.916   8.565   9.173 -0.0600  0.0552  0.3083
 3164DECAN   C931629   3.008   8.559   9.296 -0.3232 -0.4455  0.4875
 3164DECAN  C1031630   3.049   8.700   9.344  0.1847 -0.0916 -0.9288
 3165DECAN   C131631   8.315   0.034   4.061 -0.2987  0.1494 -0.5656
 3165DECAN   C231632   8.321   0.183   4.099  0.2610 -0.2313  0.8876
 3165DECAN   C331633   8.460   0.249   4.097  0.1157  0.0667  0.4076
 3165DECAN   C431634   8.454   0.389   4.158 -0.5685  0.2318 -0.0289
 3165DECAN   C531635   8.588   0.462   4.137 -0.3799 -0.1865 -0.2637
 3165DECAN   C631636   8.697   0.409   4.233 -0.5571 -0.3365 -0.1447
 3165DECAN   C731637   8.833   0.482   4.230 -0.6287 -0.2067 -0.3237
 3165DECAN   C831638   8.942   0.411   4.313  0.0455  0.4242 -0.6649
 3165DECAN   C931639   8.942   0.456   4.461 -0.0385 -0.0853 -0.5105
 3165DECAN  C1031640   9.079   0.490   4.521 -0.5330  0.4868  0.3157
 3166DECAN   C131641   7.800   0.552   5.434  0.5128  0.6440 -0.6454
 3166DECAN   C231642   7.792   0.424   5.348  0.0104  0.4018 -0.2431
 3166DECAN   C331643   7.905   0.413   5.244  0.2273  0.1250  0.0170
 3166DECAN   C431644   7.941   0.265   5.224 -0.6964 -0.0425 -0.4724
 3166DECAN   C531645   8.063   0.224   5.139  0.0502 -0.0870  0.6017
 3166DECAN   C631646   8.103   0.075   5.145  0.0214 -0.1037  0.3947
 3166DECAN   C731647   8.239   0.035   5.086 -0.0316 -0.1358  0.2966
 3166DECAN   C831648   8.266  11.131   5.117 -0.0444 -0.2544 -0.2433
 3166DECAN   C931649   8.161  11.036   5.056 -0.1225 -0.1435 -0.2826
 3166DECAN  C1031650   8.156  10.893   5.113  0.2942  0.1555  0.5212
 3167DECAN   C131651  10.313  10.456  11.618  0.4575 -0.0698 -0.2428
 3167DECAN   C231652  10.448  10.432  11.688  0.1999 -0.0426  0.2687
 3167DECAN   C331653  10.430  10.404  11.838 -0.4543 -0.0706  0.1890
 3167DECAN   C431654  10.564  10.402  11.914 -0.2881  0.3300 -0.0911
 3167DECAN   C531655  10.564  10.365  12.064  0.1419  0.0402 -0.1601
 3167DECAN   C631656  10.704  10.378  12.127 -0.0167 -0.4117  0.2887
 3167DECAN   C731657  10.691  10.365  12.280  0.7135  0.2639  0.4189
 3167DECAN   C831658  10.624  10.482  12.353  0.6935  0.8672 -0.5476
 3167DECAN   C931659  10.658  10.477  12.504 -0.0596 -0.0423 -0.4037
 3167DECAN  C1031660  10.602  10.597  12.581 -0.2109 -0.1784 -0.2991
 3168DECAN   C131661  10.115   2.970   7.775 -0.1665 -0.7231  0.3893
 3168DECAN   C231662  10.231   2.880   7.728 -0.0876 -0.2619 -0.3012
 3168DECAN   C331663  10.204   2.729   7.728  0.1805 -0.3114 -0.2206
 3168DECAN   C431664  10.173   2.685   7.584 -0.1469 -0.0390 -0.2365
 3168DECAN   C531665  10.247   2.763   7.473 -0.0762 -0.2065 -0.3076
 3168DECAN   C631666  10.225   2.710   7.330  0.4482 -0.0602 -0.4442
 3168DECAN   C731667  10.079   2.728   7.284  0.3679 -0.2499 -0.2663
 3168DECAN   C831668  10.001   2.612   7.349 -0.4017  0.4942  0.1591
 3168DECAN   C931669   9.862   2.595   7.285 -0.2207 -0.1058 -0.0767
 3168DECAN  C1031670   9.869   2.564   7.134 -0.3365 -0.1855 -0.0661
 3169DECAN   C131671   4.489   6.415  12.035 -0.2217 -0.4423 -0.1791
 3169DECAN   C231672   4.447   6.343  12.164 -0.1250  0.6543  0.4706
 3169DECAN   C331673   4.294   6.332  12.165 -0.0983  0.1780 -0.2446
 3169DECAN   C431674   4.247   6.280  12.302  0.0006  0.9383  0.0794
 3169DECAN   C531675   4.096   6.264  12.323  0.0890 -0.0127  0.0027
 3169DECAN   C631676   4.057   6.261  12.472  0.1738  0.2502  0.0295
 3169DECAN   C731677   3.908   6.272  12.506  0.1956  0.1492  0.1556
 3169DECAN   C831678   3.888   6.284  12.658  0.1039  0.0191  0.1548
 3169DECAN   C931679   3.747   6.327  12.702  0.1270  0.2869 -0.0370
 3169DECAN  C1031680   3.717   6.341  12.853 -0.0660 -1.2645  0.0832
 3170DECAN   C131681   9.224   5.325  11.966  0.0041 -0.6415 -0.2729
 3170DECAN   C231682   9.368   5.307  11.914  0.2202 -0.0007  0.1021
 3170DECAN   C331683   9.427   5.167  11.937  0.0201 -0.1052 -0.0237
 3170DECAN   C431684   9.574   5.163  11.891  0.1858  0.3732  0.4574
 3170DECAN   C531685   9.592   5.236  11.757 -0.9443  0.2368  0.2215
 3170DECAN   C631686   9.577   5.390  11.753 -0.0644  0.3133 -0.4084
 3170DECAN   C731687   9.630   5.474  11.635  0.2583  0.5291 -0.1117
 3170DECAN   C831688   9.569   5.612  11.602 -0.6695  0.0220 -0.5476
 3170DECAN   C931689   9.629   5.685  11.481 -0.2389 -0.0857 -0.4023
 3170DECAN  C1031690   9.550   5.810  11.437  0.2530  0.1339 -0.6681
 3171DECAN   C131691   7.524   1.149  14.633  0.2452  0.2190  0.5232
 3171DECAN   C231692   7.435   1.036  14.690  0.4592 -0.2150  0.0041
 3171DECAN   C331693   7.350   0.955  14.591 -0.4184  0.3272  0.3026
 3171DECAN   C431694   7.307   0.816  14.644  0.3135  0.0237  0.1177
 3171DECAN   C531695   7.219   0.747  14.538  0.8984 -0.7009  0.1001
 3171DECAN   C631696   7.164   0.625  14.614 -0.4197 -0.1599  0.0338
 3171DECAN   C731697   7.258   0.548  14.708  0.2398  0.0161 -0.4759
 3171DECAN   C831698   7.342   0.637  14.801 -0.4059  0.1749 -0.0388
 3171DECAN   C931699   7.394   0.552  14.918 -0.3431  0.1025 -0.1198
 3171DECAN  C1031700   7.467   0.629  15.029 -0.5014 -0.4032  0.3384
 3172DECAN   C131701   9.465  10.330  13.029 -1.0356 -0.3109 -0.2686
 3172DECAN   C231702   9.396  10.395  13.151 -0.0056  0.3450 -0.0188
 3172DECAN   C331703   9.421  10.343  13.294  0.1025 -0.7045 -0.4037
 3172DECAN   C431704   9.416  10.451  13.404  0.0784 -0.3236 -0.7758
 3172DECAN   C531705   9.540  10.542  13.401  0.2321 -0.4993  0.0252
 3172DECAN   C631706   9.509  10.676  13.471  0.8263 -0.4879  0.2688
 3172DECAN   C731707   9.618  10.785  13.476  0.3587  0.0069 -0.2127
 3172DECAN   C831708   9.572  10.917  13.541  0.0345 -0.2418  0.0689
 3172DECAN   C931709   9.697  11.006  13.541 -0.0385 -0.1377  0.4390
 3172DECAN  C1031710   9.792  10.966  13.655 -0.3572 -0.9314  0.4297
 3173DECAN   C131711   5.637   0.904   4.274 -0.1213  0.6581 -0.0069
 3173DECAN   C231712   5.540   0.928   4.156 -0.5357  0.1145  0.2189
 3173DECAN   C331713   5.465   0.799   4.116  0.4333 -0.2949 -0.3146
 3173DECAN   C431714   5.388   0.820   3.984 -0.0986 -0.0815  0.0276
 3173DECAN   C531715   5.271   0.919   3.999 -0.2637 -0.2846  0.0776
 3173DECAN   C631716   5.307   1.054   4.063 -0.2186 -0.3943  0.2845
 3173DECAN   C731717   5.190   1.154   4.075 -0.1778 -0.3490  0.3026
 3173DECAN   C831718   5.240   1.286   4.136 -0.0092 -0.1916 -0.1682
 3173DECAN   C931719   5.327   1.276   4.263  0.2236  0.1341 -0.2998
 3173DECAN  C1031720   5.361   1.407   4.336  0.7410 -0.2404  0.1395
 3174DECAN   C131721   4.253   3.531   8.652 -0.6429  0.7848  0.4899
 3174DECAN   C231722   4.168   3.404   8.647 -0.2150  0.5170 -0.2070
 3174DECAN   C331723   4.184   3.328   8.514 -0.1227  0.0249  0.0793
 3174DECAN   C431724   4.333   3.326   8.476 -0.0341 -0.1487  0.4372
 3174DECAN   C531725   4.414   3.200   8.513 -0.1107 -0.1773  0.5080
 3174DECAN   C631726   4.560   3.242   8.538 -0.1003 -0.0139  0.1771
 3174DECAN   C731727   4.673   3.143   8.509 -0.3296 -0.1997 -0.0800
 3174DECAN   C831728   4.730   3.128   8.366 -0.0374 -0.0439  0.0193
 3174DECAN   C931729   4.867   3.058   8.368  0.1137  0.2601  0.2623
 3174DECAN  C1031730   4.945   3.060   8.235  0.5612 -0.7141  0.4999
 3175DECAN   C131731   3.521  10.348  14.268 -0.4944 -0.2409 -0.1727
 3175DECAN   C231732   3.449  10.267  14.158 -0.4884  0.3476 -0.6172
 3175DECAN   C331733   3.483  10.119  14.133  0.6130  0.6162 -0.7592
 3175DECAN   C431734   3.415  10.075  14.003 -0.0661 -0.4277 -0.0664
 3175DECAN   C531735   3.493  10.120  13.878 -0.3975 -0.1159 -0.1611
 3175DECAN   C631736   3.432  10.091  13.739  0.1028  0.2390 -0.4570
 3175DECAN   C731737   3.401   9.947  13.695 -0.1455  0.0705  0.2467
 3175DECAN   C831738   3.311   9.945  13.571  0.2596 -0.2131 -0.0477
 3175DECAN   C931739   3.176  10.017  13.595 -0.0495 -0.8109  0.0220
 3175DECAN  C1031740   3.174  10.162  13.645 -0.5946 -0.5570 -0.7145
 3176DECAN   C131741   6.137   5.807  12.062 -0.6568 -0.7650 -0.5887
 3176DECAN   C231742   6.046   5.902  11.981 -0.4153 -0.3250 -0.3518
 3176DECAN   C331743   6.049   5.887  11.827 -0.2645  0.8080 -0.4633
 3176DECAN   C431744   6.194   5.906  11.779  0.0051 -0.0822 -0.0204
 3176DECAN   C531745   6.207   5.895  11.626  0.2978  0.0756 -0.0069
 3176DECAN   C631746   6.350   5.902  11.568  0.3885  0.9796  0.3131
 3176DECAN   C731747   6.354   5.897  11.414 -0.5144 -0.1019  0.3147
 3176DECAN   C831748   6.298   6.021  11.343  0.1849  0.0291 -0.0109
 3176DECAN   C931749   6.304   6.030  11.189  0.0745  0.2071 -0.0053
 3176DECAN  C1031750   6.274   6.175  11.145  0.7307  0.4597  0.3691
 3177DECAN   C131751   5.443   6.766   9.777  0.0529  0.7448 -0.2200
 3177DECAN   C231752   5.414   6.914   9.809 -0.0745  0.5982  0.3523
 3177DECAN   C331753   5.488   7.014   9.719 -0.0661  0.0145 -0.2967
 3177DECAN   C431754   5.498   6.970   9.571  0.1056  0.0711 -0.3014
 3177DECAN   C531755   5.361   6.943   9.507 -0.1433 -0.2695  0.3689
 3177DECAN   C631756   5.367   6.883   9.365 -0.2493 -0.2789  0.3687
 3177DECAN   C731757   5.246   6.804   9.311 -0.0322 -0.4936  0.1939
 3177DECAN   C831758   5.274   6.733   9.177 -0.0537 -0.0000 -0.0749
 3177DECAN   C931759   5.305   6.823   9.056  0.3082 -0.4158 -0.2964
 3177DECAN  C1031760   5.425   6.917   9.077 -0.4965  0.4355  0.6724
 3178DECAN   C131761   8.092   3.393  12.603 -0.0781 -0.0145  0.3732
 3178DECAN   C231762   8.006   3.370  12.729 -0.1040  0.0799  0.3723
 3178DECAN   C331763   8.030   3.237  12.803  0.1419 -0.2236 -0.2445
 3178DECAN   C431764   7.932   3.126  12.763 -0.5486  0.3791 -0.2473
 3178DECAN   C531765   7.941   3.018  12.873 -0.6016  0.2082 -0.4104
 3178DECAN   C631766   8.071   2.936  12.868 -0.6184  0.1800 -0.3661
 3178DECAN   C731767   8.064   2.800  12.940  0.1622  0.1548 -0.3274
 3178DECAN   C831768   8.188   2.715  12.906 -0.0823 -0.5611  0.5287
 3178DECAN   C931769   8.320   2.790  12.931 -0.2813 -0.0006 -0.0607
 3178DECAN  C1031770   8.327   2.903  12.827 -0.7855 -0.0804 -0.1846
 3179DECAN   C131771   6.264   9.892  13.750 -0.1935  0.2852 -0.5415
 3179DECAN   C231772   6.250   9.742  13.721 -0.3919  0.0819  0.5631
 3179DECAN   C331773   6.277   9.647  13.840 -0.4998 -0.3248  0.2664
 3179DECAN   C431774   6.210   9.674  13.976  0.7779  0.6893  0.7147
 3179DECAN   C531775   6.256   9.565  14.075 -0.1109 -0.2926  0.0669
 3179DECAN   C631776   6.217   9.422  14.033 -0.2233 -0.3550  0.3805
 3179DECAN   C731777   6.281   9.388  13.897 -0.2926  0.5895  0.1040
 3179DECAN   C831778   6.221   9.265  13.826  1.2135 -0.0118 -0.1591
 3179DECAN   C931779   6.301   9.227  13.699  1.0206 -0.4209 -0.1587
 3179DECAN  C1031780   6.245   9.104  13.624  0.0197  0.2221 -0.4888
 3180DECAN   C131781   3.394   6.675   8.431  0.0610 -0.1348 -0.3724
 3180DECAN   C231782   3.380   6.566   8.323  0.3505 -0.2365 -0.3081
 3180DECAN   C331783   3.267   6.463   8.343  0.4132 -0.3700 -0.6401
 3180DECAN   C431784   3.283   6.379   8.471  0.0675 -0.2759 -0.5336
 3180DECAN   C531785   3.420   6.318   8.506 -0.4221 -0.8787  0.3522
 3180DECAN   C631786   3.487   6.214   8.414  0.0230 -0.6133  0.3790
 3180DECAN   C731787   3.447   6.070   8.448  0.4363 -0.7674  0.2224
 3180DECAN   C831788   3.296   6.042   8.452  0.3134 -0.0942  0.3636
 3180DECAN   C931789   3.254   5.911   8.523 -0.2111 -0.1763 -0.0912
 3180DECAN  C1031790   3.101   5.906   8.532 -0.1899  0.2449  0.5204
 3181DECAN   C131791   6.324   4.528  15.092  0.2236 -0.2309 -0.2043
 3181DECAN   C231792   6.277   4.672  15.120 -0.3764 -0.5111  0.2894
 3181DECAN   C331793   6.149   4.716  15.047  0.0240 -0.0693 -0.1551
 3181DECAN   C431794   6.020   4.665  15.113  0.1186 -0.0676  0.0319
 3181DECAN   C531795   5.893   4.727  15.053  0.1505  0.2367  0.2774
 3181DECAN   C631796   5.758   4.665  15.095  0.2408  0.0768  0.3316
 3181DECAN   C731797   5.648   4.763  15.050  0.6427  0.3336 -0.0955
 3181DECAN   C831798   5.506   4.705  15.039  0.5173  0.6710 -0.2755
 3181DECAN   C931799   5.407   4.815  14.999 -0.4057  0.0704  0.3163
 3181DECAN  C1031800   5.298   4.735  14.925  0.3938 -0.5855 -0.1705
 3182DECAN   C131801   8.353   8.656   7.218 -0.1264  0.3997 -0.4550
 3182DECAN   C231802   8.308   8.509   7.223  0.1439  0.2982 -0.9748
 3182DECAN   C331803   8.236   8.457   7.097  0.4260 -0.2763 -0.9021
 3182DECAN   C431804   8.194   8.309   7.110 -0.0661 -0.0747 -0.0741
 3182DECAN   C531805   8.154   8.247   6.975 -0.1363  0.2959 -0.2242
 3182DECAN   C631806   8.111   8.099   6.983 -0.0951  0.3071  0.2269
 3182DECAN   C731807   8.225   7.996   6.990 -0.1455  0.2445  0.1327
 3182DECAN   C831808   8.185   7.848   7.001 -0.3359  0.3120  0.3512
 3182DECAN   C931809   8.309   7.765   7.038 -0.7338 -0.3264  0.2592
 3182DECAN  C1031810   8.425   7.761   6.936 -0.1645 -0.0201  0.8837
 3183DECAN   C131811   5.423   3.057  12.675  0.5809 -0.2624  0.2881
 3183DECAN   C231812   5.451   3.015  12.821 -0.0052  0.1280  0.5178
 3183DECAN   C331813   5.375   2.889  12.866 -0.5420  0.0857 -0.4805
 3183DECAN   C431814   5.395   2.872  13.018  0.0141 -0.0262 -0.5634
 3183DECAN   C531815   5.328   2.748  13.080  0.2365  0.1307 -0.0047
 3183DECAN   C631816   5.289   2.773  13.227  0.4931  0.2153  0.0492
 3183DECAN   C731817   5.405   2.764  13.327  0.2262  0.8187  0.4196
 3183DECAN   C831818   5.365   2.744  13.475 -0.2345 -0.3452  0.1497
 3183DECAN   C931819   5.476   2.694  13.569  0.0499  0.0492  0.0306
 3183DECAN  C1031820   5.440   2.674  13.718 -0.1915  0.0960 -0.0215
 3184DECAN   C131821   5.600   4.741  10.370 -0.2046  0.3788 -0.3954
 3184DECAN   C231822   5.548   4.832  10.484  0.4624  0.1276  0.1149
 3184DECAN   C331823   5.409   4.806  10.543  0.1664  0.0442 -0.6034
 3184DECAN   C431824   5.382   4.904  10.659 -0.0616 -0.4540 -0.2276
 3184DECAN   C531825   5.441   4.880  10.799  0.4505  0.3818 -0.2936
 3184DECAN   C631826   5.395   4.989  10.897  0.7974  0.1365  0.1415
 3184DECAN   C731827   5.364   4.928  11.035  1.2497  0.1190  0.2369
 3184DECAN   C831828   5.299   5.019  11.141  0.0852 -0.0361 -0.3338
 3184DECAN   C931829   5.267   4.955  11.277 -0.1140 -0.4619 -0.5796
 3184DECAN  C1031830   5.137   4.875  11.296 -0.1427  0.0033  1.4227
 3185DECAN   C131831  10.810   5.272  10.894 -0.1072  0.1480 -0.4073
 3185DECAN   C231832  10.751   5.198  11.016  0.5359  0.0454 -0.1494
 3185DECAN   C331833  10.778   5.047  11.017 -0.6260 -0.1790 -0.3387
 3185DECAN   C431834  10.739   4.970  11.144  0.1780 -0.2107 -0.1050
 3185DECAN   C531835  10.750   4.816  11.139 -0.2503 -0.2352 -0.2527
 3185DECAN   C631836  10.891   4.779  11.187 -0.3098 -0.0535  0.0631
 3185DECAN   C731837  10.911   4.806  11.338  0.2718  1.1236 -0.2071
 3185DECAN   C831838  11.050   4.760  11.385 -0.0919  0.5118  0.3019
 3185DECAN   C931839  11.063   4.749  11.538 -0.0011  0.2738  0.2783
 3185DECAN  C1031840  11.057   4.886  11.609  0.6908  0.3091  0.2694
 3186DECAN   C131841   4.503   1.962   6.825  0.0424  0.4178 -0.6724
 3186DECAN   C231842   4.608   1.954   6.713  0.1312  0.5503 -0.5991
 3186DECAN   C331843   4.668   1.817   6.676 -0.3233  0.2956 -0.3988
 3186DECAN   C431844   4.780   1.827   6.570  0.2107  0.3197  0.1653
 3186DECAN   C531845   4.818   1.691   6.508  0.1707  0.4371 -0.1142
 3186DECAN   C631846   4.917   1.718   6.392 -0.3308  0.1271 -0.6207
 3186DECAN   C731847   4.997   1.590   6.360  0.2576  0.1882  0.5489
 3186DECAN   C831848   5.045   1.525   6.492  0.1757  0.3043  0.6367
 3186DECAN   C931849   5.106   1.384   6.477 -0.2134  0.2351 -0.4223
 3186DECAN  C1031850   5.142   1.327   6.615  0.2925  0.3211 -0.5177
 3187DECAN   C131851   9.197   4.551   9.899  0.2306 -0.2883 -0.3526
 3187DECAN   C231852   9.052   4.592   9.927  0.3463  0.3964 -0.7233
 3187DECAN   C331853   8.969   4.481   9.994  0.6024  0.3094 -0.5528
 3187DECAN   C431854   8.994   4.459  10.145 -0.0407 -0.0718 -0.4977
 3187DECAN   C531855   8.885   4.376  10.216 -0.0540  0.2386 -0.1497
 3187DECAN   C631856   8.890   4.229  10.170 -0.0587  0.2475 -0.1781
 3187DECAN   C731857   8.787   4.136  10.237 -0.3622  0.4281 -0.3944
 3187DECAN   C831858   8.793   3.995  10.176  0.1094  0.6496 -0.8686
 3187DECAN   C931859   8.706   3.881  10.233  0.4968  0.4732 -0.6286
 3187DECAN  C1031860   8.734   3.738  10.184  0.5854  0.1438  0.3651
 3188DECAN   C131861   2.229   4.128  11.325  0.2693  0.0408 -0.4498
 3188DECAN   C231862   2.322   4.185  11.216  0.2621  0.2472 -0.3480
 3188DECAN   C331863   2.263   4.276  11.106  0.3448 -0.0232 -0.6149
 3188DECAN   C431864   2.222   4.413  11.162 -0.2580 -0.3867 -0.1561
 3188DECAN   C531865   2.203   4.512  11.046  0.0387 -0.3038 -0.1329
 3188DECAN   C631866   2.121   4.641  11.065  0.8887  0.2387 -0.0801
 3188DECAN   C731867   2.104   4.716  10.932 -0.2119  0.2424  0.0559
 3188DECAN   C831868   2.013   4.841  10.935  0.1229  0.4965 -0.3483
 3188DECAN   C931869   1.946   4.881  10.802 -0.1320 -0.3973 -0.4960
 3188DECAN  C1031870   1.856   5.003  10.832  0.4056 -0.0031 -0.4776
 3189DECAN   C131871   4.993   5.537  14.828  0.0547 -0.6093 -0.1902
 3189DECAN   C231872   4.876   5.487  14.914 -0.1070  0.2711  0.1031
 3189DECAN   C331873   4.883   5.532  15.061 -0.6139  0.0337  0.2055
 3189DECAN   C431874   4.760   5.487  15.142 -0.8504 -0.7692 -0.5915
 3189DECAN   C531875   4.625   5.547  15.096 -0.2720  0.7765 -0.3245
 3189DECAN   C631876   4.597   5.529  14.946  0.0522 -0.3344 -0.2601
 3189DECAN   C731877   4.450   5.553  14.907  0.2561  0.1653 -0.7376
 3189DECAN   C831878   4.397   5.491  14.777 -0.2269  0.4344 -0.6740
 3189DECAN   C931879   4.400   5.337  14.767 -0.0534  0.3145  0.9808
 3189DECAN  C1031880   4.540   5.281  14.796  0.0146 -0.2501 -0.3966
 3190DECAN   C131881   3.476   7.610   4.115 -0.0184 -0.3537  0.1711
 3190DECAN   C231882   3.352   7.636   4.028 -0.0480  0.3338  0.4077
 3190DECAN   C331883   3.271   7.508   3.997  0.2261  0.2378  0.0857
 3190DECAN   C431884   3.179   7.510   3.873 -0.0389 -0.3257  0.2731
 3190DECAN   C531885   3.193   7.375   3.800  0.0990 -0.1466 -0.0323
 3190DECAN   C631886   3.073   7.345   3.709  0.0653 -0.4456  0.1102
 3190DECAN   C731887   2.957   7.293   3.796 -0.1218  0.2170  0.2594
 3190DECAN   C831888   2.898   7.402   3.888  0.3523  0.3788  0.3789
 3190DECAN   C931889   2.786   7.363   3.987 -0.1314  0.1114 -0.2662
 3190DECAN  C1031890   2.735   7.479   4.074 -0.1678  0.1352 -0.3192
 3191DECAN   C131891   9.870   5.606   6.753  0.1266 -0.0883 -0.0911
 3191DECAN   C231892   9.859   5.487   6.657  0.2344 -0.3449  0.2151
 3191DECAN   C331893   9.729   5.479   6.575  0.3723 -0.4647  0.0104
 3191DECAN   C431894   9.735   5.370   6.466  0.1380 -0.1716 -0.2985
 3191DECAN   C531895   9.603   5.361   6.387  0.0137 -0.0946 -0.0995
 3191DECAN   C631896   9.583   5.231   6.308 -0.0835 -0.0022 -0.2289
 3191DECAN   C731897   9.438   5.227   6.255 -0.1721  0.4820 -0.0301
 3191DECAN   C831898   9.397   5.089   6.200 -0.0801  0.5993 -0.3994
 3191DECAN   C931899   9.259   5.084   6.131 -0.0430  0.2586 -0.4532
 3191DECAN  C1031900   9.229   4.946   6.071 -0.1534 -0.3117  0.8718
 3192DECAN   C131901   8.103   6.037   9.572 -0.8343  0.0219  0.0066
 3192DECAN   C231902   8.225   6.070   9.660 -0.5377 -0.0247 -0.3831
 3192DECAN   C331903   8.289   6.205   9.624 -0.5443  0.0996  0.0590
 3192DECAN   C431904   8.415   6.248   9.701 -0.4122 -0.6356  0.2607
 3192DECAN   C531905   8.523   6.164   9.630  0.1364  0.6329 -0.4494
 3192DECAN   C631906   8.667   6.180   9.682 -0.0669  0.0843  0.3092
 3192DECAN   C731907   8.749   6.067   9.618 -0.4701 -0.0944  0.1048
 3192DECAN   C831908   8.899   6.069   9.652 -0.4550  0.5271  0.0215
 3192DECAN   C931909   8.933   6.053   9.802  0.3591 -0.6726 -0.2696
 3192DECAN  C1031910   9.075   6.015   9.846  0.1385 -0.9718  0.1874
 3193DECAN   C131911   3.018   5.375   3.990 -0.4959  0.2822 -0.0513
 3193DECAN   C231912   3.153   5.447   4.007 -0.3141 -0.1849  0.4941
 3193DECAN   C331913   3.274   5.358   3.969  0.2490  0.8511 -0.1805
 3193DECAN   C431914   3.416   5.403   4.007  0.2542  0.6822  0.0015
 3193DECAN   C531915   3.437   5.405   4.160 -0.4090  0.4308  0.1025
 3193DECAN   C631916   3.575   5.467   4.190 -0.1840  0.0019 -0.0336
 3193DECAN   C731917   3.694   5.377   4.152 -0.1291 -0.0898  0.3515
 3193DECAN   C831918   3.829   5.441   4.189  0.0045 -0.1788  0.0224
 3193DECAN   C931919   3.866   5.560   4.099 -0.0731 -0.1924 -0.0273
 3193DECAN  C1031920   3.974   5.653   4.158 -0.2731 -0.3393  0.5773
 3194DECAN   C131921   6.395   2.442  10.823 -0.4943 -0.2049 -0.3141
 3194DECAN   C231922   6.531   2.378  10.859 -0.3195  0.2490 -0.1467
 3194DECAN   C331923   6.524   2.225  10.881  0.9363  0.1599 -0.3299
 3194DECAN   C431924   6.648   2.177  10.960  0.8544 -0.0673 -0.3393
 3194DECAN   C531925   6.619   2.054  11.047  0.4643  0.3694  0.1530
 3194DECAN   C631926   6.727   2.021  11.152  0.4239 -0.0257  0.0743
 3194DECAN   C731927   6.701   1.886  11.222 -0.7288 -0.1873 -0.6378
 3194DECAN   C831928   6.556   1.872  11.271 -0.5290  0.0113  0.0245
 3194DECAN   C931929   6.523   1.740  11.344 -0.7373  0.0400 -0.0161
 3194DECAN  C1031930   6.373   1.734  11.378 -0.6612 -0.1402  0.2956
 3195DECAN   C131931   7.626   5.684   3.893  0.4493 -0.1424 -0.1260
 3195DECAN   C231932   7.770   5.707   3.844  0.2739  0.5754 -0.3079
 3195DECAN   C331933   7.864   5.586   3.833  0.3415  0.5681  0.3007
 3195DECAN   C431934   7.981   5.587   3.733 -0.3764  0.1516 -0.5627
 3195DECAN   C531935   8.077   5.702   3.768 -0.2403 -0.0122 -0.3966
 3195DECAN   C631936   8.026   5.845   3.742  0.0639  0.1808  0.0548
 3195DECAN   C731937   8.121   5.951   3.800  0.0258  0.0757  0.3163
 3195DECAN   C831938   8.110   6.096   3.748  0.3230  0.0446  0.1629
 3195DECAN   C931939   8.155   6.212   3.838  0.2000 -0.1640  0.4934
 3195DECAN  C1031940   8.298   6.191   3.892  0.4021 -0.0892 -0.0123
 3196DECAN   C131941   5.403   6.851   8.610 -0.0672 -0.0294  0.0806
 3196DECAN   C231942   5.472   6.918   8.730 -0.3275  0.0978  0.1613
 3196DECAN   C331943   5.536   7.056   8.703  0.2564 -0.1025  0.4983
 3196DECAN   C431944   5.592   7.111   8.835 -0.1079  0.8833  0.2444
 3196DECAN   C531945   5.698   7.221   8.812  0.2353  0.4455 -0.2863
 3196DECAN   C631946   5.707   7.323   8.927  0.0970 -0.2837  0.3822
 3196DECAN   C731947   5.781   7.457   8.912 -0.1160 -0.2096 -0.0299
 3196DECAN   C831948   5.766   7.541   9.041  0.2829 -0.2529  0.0457
 3196DECAN   C931949   5.854   7.668   9.046 -0.0267 -0.0545  0.4153
 3196DECAN  C1031950   5.826   7.763   9.164  0.2107  0.7419 -0.1661
 3197DECAN   C131951   6.197   9.212   5.530 -0.5092 -0.1608  0.3257
 3197DECAN   C231952   6.167   9.163   5.387 -0.7015  0.1301  0.2667
 3197DECAN   C331953   6.114   9.019   5.378  0.1870 -0.1842 -0.0676
 3197DECAN   C431954   6.018   9.008   5.258 -0.5759  0.4035  0.4796
 3197DECAN   C531955   6.097   9.044   5.131 -0.2579 -0.1341  0.5222
 3197DECAN   C631956   6.038   9.042   4.989 -0.2085 -0.1204  0.5015
 3197DECAN   C731957   6.021   8.903   4.923 -0.1978  0.0837  0.0662
 3197DECAN   C831958   5.930   8.910   4.799  0.3469  0.6161 -0.3119
 3197DECAN   C931959   5.792   8.978   4.814  0.1193  0.1598 -0.3258
 3197DECAN  C1031960   5.707   8.961   4.687 -0.0656 -0.1339 -0.1636
 3198DECAN   C131961   2.624   2.291   6.185  0.0240 -0.2052  0.0857
 3198DECAN   C231962   2.694   2.362   6.303 -0.1728 -0.1444  0.1663
 3198DECAN   C331963   2.615   2.467   6.382  0.0651  0.2634 -0.1362
 3198DECAN   C431964   2.690   2.498   6.513 -0.7471 -0.3884  0.4959
 3198DECAN   C531965   2.615   2.613   6.581  0.2187  0.4491  0.1677
 3198DECAN   C631966   2.590   2.735   6.490 -0.2039  0.2134 -0.0372
 3198DECAN   C731967   2.492   2.712   6.374 -0.1532 -0.0080 -0.0380
 3198DECAN   C831968   2.506   2.825   6.269 -0.3355  0.2410  0.2052
 3198DECAN   C931969   2.416   2.793   6.149 -0.2176  0.1405  0.1433
 3198DECAN  C1031970   2.390   2.915   6.059 -0.5408 -0.3718 -0.4638
 3199DECAN   C131971   7.918   6.308  12.303 -0.6468 -0.2228  0.2098
 3199DECAN   C231972   7.917   6.303  12.457 -0.0288  0.1653  0.2304
 3199DECAN   C331973   7.776   6.289  12.518 -0.2155  0.6041 -0.0921
 3199DECAN   C431974   7.763   6.333  12.665 -0.2292 -0.1381  0.1320
 3199DECAN   C531975   7.615   6.313  12.703 -0.2922  0.2115  0.0665
 3199DECAN   C631976   7.579   6.365  12.843 -0.0271  0.1960  0.1405
 3199DECAN   C731977   7.666   6.295  12.949  0.1711  0.0197 -0.1373
 3199DECAN   C831978   7.665   6.341  13.096  0.1650 -0.7306  0.1017
 3199DECAN   C931979   7.780   6.298  13.189  0.0685 -0.2877  0.4314
 3199DECAN  C1031980   7.804   6.401  13.301 -0.7898  0.0002  0.3494
 3200DECAN   C131981   9.049   1.483   7.054 -1.1095  0.0810  0.1511
 3200DECAN   C231982   8.993   1.402   6.935 -0.2688 -0.4748  0.1292
 3200DECAN   C331983   9.077   1.275   6.914  0.0577 -0.1817 -0.3375
 3200DECAN   C431984   9.059   1.163   7.018  0.0047  0.2168  0.0854
 3200DECAN   C531985   9.128   1.030   6.984 -0.3426  0.1499 -0.3782
 3200DECAN   C631986   9.153   0.942   7.109 -0.4713  0.7719  0.0892
 3200DECAN   C731987   9.039   0.885   7.195  0.1651  0.0378  0.4558
 3200DECAN   C831988   9.074   0.746   7.250  0.4069  0.0748  0.3979
 3200DECAN   C931989   8.956   0.678   7.321  0.2800  0.3230  0.4228
 3200DECAN  C1031990   8.886   0.564   7.245  0.5203  0.4885 -0.0453
 3201DECAN   C131991   2.707   1.585   5.684  0.3749 -0.5185  0.3736
 3201DECAN   C231992   2.708   1.460   5.594  0.0521 -0.0894 -0.2389
 3201DECAN   C331993   2.601   1.453   5.484 -0.1537 -0.0435 -0.0426
 3201DECAN   C431994   2.474   1.532   5.519  0.0534  0.2357  0.0890
 3201DECAN   C531995   2.363   1.543   5.412  0.2264 -0.0653 -0.1230
 3201DECAN   C631996   2.253   1.644   5.451  0.0838  0.0121 -0.7085
 3201DECAN   C731997   2.289   1.792   5.433  0.0158  0.1574  0.2852
 3201DECAN   C831998   2.163   1.879   5.416 -0.1017 -0.1421 -0.4321
 3201DECAN   C931999   2.144   1.995   5.517 -0.0458 -0.3656 -0.1628
 3201DECAN  C1032000   2.165   1.952   5.663 -0.2787  0.6941  0.1890
 3202DECAN   C132001   6.194   8.643   9.964 -0.6146  0.8260 -0.6907
 3202DECAN   C232002   6.306   8.737  10.013  0.1095 -0.5691  0.3832
 3202DECAN   C332003   6.446   8.683   9.979  0.0353 -0.4233 -0.1528
 3202DECAN   C432004   6.482   8.645   9.834  0.2121 -0.1419 -0.1828
 3202DECAN   C532005   6.390   8.537   9.774  0.0779 -0.0762 -0.0934
 3202DECAN   C632006   6.411   8.508   9.625  0.1176  0.1864 -0.1389
 3202DECAN   C732007   6.303   8.409   9.576 -0.1300  0.3103  0.1567
 3202DECAN   C832008   6.191   8.478   9.497 -0.1380  0.0862 -0.0277
 3202DECAN   C932009   6.072   8.513   9.589 -0.0801 -0.1298  0.1292
 3202DECAN  C1032010   5.959   8.578   9.507  0.1582 -0.3563 -0.3814
 3203DECAN   C132011   1.908   1.107  13.980  0.5326 -0.0596 -0.1288
 3203DECAN   C232012   1.760   1.077  14.008  0.5257 -0.0916 -0.2003
 3203DECAN   C332013   1.729   1.021  14.148 -0.2419  0.5310 -0.1126
 3203DECAN   C432014   1.580   0.989  14.174 -0.2770  0.9295  0.1782
 3203DECAN   C532015   1.558   0.954  14.322  0.1742 -0.3264 -0.0407
 3203DECAN   C632016   1.651   1.041  14.410 -0.3343  0.7653 -0.5595
 3203DECAN   C732017   1.630   1.018  14.561  0.9259 -0.2850 -0.5221
 3203DECAN   C832018   1.717   1.100  14.659  0.0559 -0.1449  0.1420
 3203DECAN   C932019   1.861   1.048  14.674  0.2626  0.1288 -0.8166
 3203DECAN  C1032020   1.964   1.133  14.752 -0.2165  0.1688 -0.2179
 3204DECAN   C132021   6.335  10.309   5.982 -0.6356  0.0393  0.5832
 3204DECAN   C232022   6.387  10.248   6.113 -0.1982  0.0494  0.4180
 3204DECAN   C332023   6.283  10.277   6.223 -0.6370 -0.0024  0.0173
 3204DECAN   C432024   6.267  10.427   6.252 -1.2726 -0.0459 -0.0747
 3204DECAN   C532025   6.227  10.515   6.132 -0.2016 -0.5914 -0.8542
 3204DECAN   C632026   6.231  10.669   6.145  0.0084 -0.6675  0.0859
 3204DECAN   C732027   6.174  10.743   6.023  0.7734  0.3088  0.3122
 3204DECAN   C832028   6.266  10.766   5.901  0.4372 -0.0334 -0.0078
 3204DECAN   C932029   6.366  10.880   5.927 -0.0729  0.4043  0.0430
 3204DECAN  C1032030   6.460  10.889   5.805  0.1817 -0.0110  0.2057
 3205DECAN   C132031   5.664   7.697  11.080 -0.1899  0.4655 -0.2478
 3205DECAN   C232032   5.544   7.627  11.015 -0.2763  0.2227  0.1708
 3205DECAN   C332033   5.434   7.723  10.965 -0.0409  0.0878 -0.6319
 3205DECAN   C432034   5.318   7.655  10.890 -0.4048  0.0150 -0.0189
 3205DECAN   C532035   5.214   7.753  10.833 -0.6834 -0.0509  0.3764
 3205DECAN   C632036   5.160   7.863  10.926  0.7470  0.5617  0.5110
 3205DECAN   C732037   5.058   7.963  10.868 -0.1889 -0.2865  0.6657
 3205DECAN   C832038   4.987   8.013  10.995  0.1807  0.3233  0.6412
 3205DECAN   C932039   4.859   8.091  10.959  0.4375  0.2608 -0.4466
 3205DECAN  C1032040   4.815   8.174  11.082  1.2011  0.0048  0.0084
 3206DECAN   C132041   6.719   9.878   5.898  0.8261  0.0609  0.2756
 3206DECAN   C232042   6.731   9.897   5.746 -0.1046  0.3075  0.2280
 3206DECAN   C332043   6.859   9.837   5.684 -0.3992  0.4158 -0.5012
 3206DECAN   C432044   6.841   9.812   5.533  0.7277  0.2458 -0.6165
 3206DECAN   C532045   6.937   9.721   5.456  0.1600 -0.2156 -0.7877
 3206DECAN   C632046   6.902   9.573   5.480 -0.2081 -0.0332 -0.2020
 3206DECAN   C732047   6.989   9.473   5.402 -0.2100 -0.3003  0.1368
 3206DECAN   C832048   7.086   9.388   5.486  0.5007  0.0394 -0.3402
 3206DECAN   C932049   7.168   9.484   5.574  0.0761  0.0409  0.0550
 3206DECAN  C1032050   7.261   9.582   5.499 -1.0341  0.6337 -0.5630
 3207DECAN   C132051   3.627   7.986  12.055 -0.2631 -0.1192  0.1368
 3207DECAN   C232052   3.720   8.087  12.125  0.4706 -0.6854  0.0046
 3207DECAN   C332053   3.708   8.068  12.278  0.0631  0.0597  0.0683
 3207DECAN   C432054   3.839   8.012  12.335  0.0873  0.5438  0.4914
 3207DECAN   C532055   3.826   7.991  12.487 -0.2047 -0.0293  0.3911
 3207DECAN   C632056   3.931   7.903  12.557  0.3786  0.1129 -0.2959
 3207DECAN   C732057   3.900   7.903  12.708  0.2792 -0.0937 -0.3167
 3207DECAN   C832058   3.816   8.024  12.754 -0.1139 -0.5433  0.1595
 3207DECAN   C932059   3.916   8.140  12.770 -0.1525 -0.4192 -0.4448
 3207DECAN  C1032060   3.857   8.276  12.730  0.0956 -0.2377 -0.1970
 3208DECAN   C132061   2.834   7.764   4.763 -0.1327 -0.0139 -0.5527
 3208DECAN   C232062   2.984   7.729   4.766 -0.1353  0.0504  0.5655
 3208DECAN   C332063   3.069   7.858   4.773  0.1881 -0.1371  0.1503
 3208DECAN   C432064   3.217   7.833   4.740  0.1740  0.5146 -0.4391
 3208DECAN   C532065   3.255   7.810   4.593 -0.2598 -0.4271 -0.4136
 3208DECAN   C632066   3.257   7.941   4.512  1.1426  0.0640  0.3643
 3208DECAN   C732067   3.324   7.932   4.374  0.9753 -0.2561  0.3026
 3208DECAN   C832068   3.324   8.069   4.303 -0.2929 -0.2488  0.2842
 3208DECAN   C932069   3.386   8.069   4.162 -0.1834  0.0117  0.3316
 3208DECAN  C1032070   3.515   7.986   4.149  0.0326  0.3285  0.4280
 3209DECAN   C132071   1.884   3.908   6.719  0.1801  0.1122  0.1065
 3209DECAN   C232072   1.795   3.996   6.628  0.0134  0.1543  0.3098
 3209DECAN   C332073   1.815   3.963   6.479 -0.1944 -0.3009  0.3817
 3209DECAN   C432074   1.719   4.025   6.375  0.2270 -0.5073 -0.1345
 3209DECAN   C532075   1.758   3.982   6.233 -0.2438  0.3951 -0.5428
 3209DECAN   C632076   1.736   3.832   6.205 -0.1922  0.2097  0.3826
 3209DECAN   C732077   1.777   3.779   6.066 -0.2609 -0.0356  0.4547
 3209DECAN   C832078   1.925   3.810   6.035 -0.2404 -0.2167  0.3699
 3209DECAN   C932079   1.998   3.736   5.922 -0.0115 -0.3329  0.5930
 3209DECAN  C1032080   2.151   3.754   5.915 -0.0803  0.1243  0.2464
 3210DECAN   C132081   5.727   3.957   9.706  0.1757 -0.9853 -0.0077
 3210DECAN   C232082   5.591   4.026   9.684  0.1021 -0.9543  0.5453
 3210DECAN   C332083   5.532   4.079   9.816  0.0092 -0.7328  0.4158
 3210DECAN   C432084   5.392   4.141   9.799  0.3942  0.1450  0.3903
 3210DECAN   C532085   5.327   4.222   9.913 -0.2265  0.7001 -0.3434
 3210DECAN   C632086   5.196   4.281   9.857 -0.3995  0.3465 -0.3118
 3210DECAN   C732087   5.090   4.170   9.844  0.0541 -0.1239 -0.0732
 3210DECAN   C832088   4.971   4.236   9.771  0.2417  0.0809 -0.1968
 3210DECAN   C932089   4.856   4.142   9.730  0.2754 -0.1981  0.3301
 3210DECAN  C1032090   4.762   4.216   9.633  0.4222  0.3856  0.6299
 3211DECAN   C132091   2.386   8.505  10.050 -0.2340 -0.3875 -0.6811
 3211DECAN   C232092   2.373   8.635  10.131  0.2287 -0.5675 -0.3159
 3211DECAN   C332093   2.497   8.660  10.220  0.0508  0.2317 -0.2786
 3211DECAN   C432094   2.489   8.778  10.318  0.2097  0.1925 -0.2181
 3211DECAN   C532095   2.377   8.761  10.423  0.6885  0.2278  0.3013
 3211DECAN   C632096   2.386   8.877  10.523 -0.1257  0.2451  0.3579
 3211DECAN   C732097   2.292   8.862  10.645 -0.2438  0.3286  0.2777
 3211DECAN   C832098   2.337   8.952  10.761 -0.1578  0.2540  0.3024
 3211DECAN   C932099   2.249   8.922  10.884 -0.3186  0.2748  0.1930
 3211DECAN  C1032100   2.265   8.997  11.017 -0.0241  0.0708  0.2721
 3212DECAN   C132101   7.331   2.908  10.402 -0.5853 -0.0712 -0.3467
 3212DECAN   C232102   7.350   3.051  10.454 -0.0405 -0.1283 -0.3856
 3212DECAN   C332103   7.471   3.126  10.395  0.3423 -0.4554 -0.0302
 3212DECAN   C432104   7.437   3.191  10.259  0.6065  0.1785  0.1997
 3212DECAN   C532105   7.297   3.256  10.262  0.6382  0.2436  0.2695
 3212DECAN   C632106   7.290   3.374  10.359 -0.0836  0.1257  0.3699
 3212DECAN   C732107   7.149   3.428  10.390 -0.1567 -0.2139  0.6291
 3212DECAN   C832108   7.135   3.559  10.469 -0.1631 -0.2050  0.6126
 3212DECAN   C932109   7.227   3.669  10.414  0.0599 -0.5969  0.1931
 3212DECAN  C1032110   7.237   3.783  10.516 -0.2948 -0.5675  0.1961
 3213DECAN   C132111   2.136   3.322   6.379  0.1733  0.1897 -0.3337
 3213DECAN   C232112   1.990   3.314   6.426  0.3273  0.4845  0.2077
 3213DECAN   C332113   1.918   3.440   6.372  0.2611  0.0854 -0.6495
 3213DECAN   C432114   2.006   3.563   6.344 -0.1712  0.4417 -0.4455
 3213DECAN   C532115   2.054   3.645   6.466 -0.3814  0.0209 -0.0739
 3213DECAN   C632116   2.161   3.748   6.422  0.3702 -0.4932  0.5249
 3213DECAN   C732117   2.205   3.820   6.550  0.1037 -0.0384  0.3639
 3213DECAN   C832118   2.320   3.918   6.522 -0.1665  0.1228 -0.1940
 3213DECAN   C932119   2.376   3.992   6.646 -0.5411 -0.1030  0.1110
 3213DECAN  C1032120   2.469   4.103   6.595 -0.2213 -0.3084  0.2493
 3214DECAN   C132121   3.659   3.036   9.506 -0.2983 -0.0630 -0.2618
 3214DECAN   C232122   3.623   3.075   9.362  0.2371  0.2260 -0.3163
 3214DECAN   C332123   3.699   3.002   9.250  0.2336 -0.1636 -0.0637
 3214DECAN   C432124   3.643   3.021   9.107  0.2542 -0.1507 -0.0703
 3214DECAN   C532125   3.739   2.998   8.989  0.1357 -0.1603 -0.1646
 3214DECAN   C632126   3.702   3.076   8.862 -0.4693  0.0751  0.1537
 3214DECAN   C732127   3.781   3.031   8.738 -0.2374  0.3260  0.2101
 3214DECAN   C832128   3.767   3.113   8.609 -0.4124  0.3799  0.2635
 3214DECAN   C932129   3.874   3.074   8.504 -0.2432  0.2493  0.4836
 3214DECAN  C1032130   3.846   2.947   8.423  0.3533  0.5071 -0.1305
 3215DECAN   C132131   2.651   7.064   7.564  0.2903 -0.1793  0.1308
 3215DECAN   C232132   2.544   7.161   7.617  0.2648 -0.4274  0.5376
 3215DECAN   C332133   2.508   7.127   7.762 -0.0285 -0.6756  0.4081
 3215DECAN   C432134   2.386   7.208   7.812  0.6561  0.6081  0.0394
 3215DECAN   C532135   2.342   7.170   7.955  0.2824 -0.1267 -0.2677
 3215DECAN   C632136   2.453   7.184   8.060  0.0332 -0.1886  0.0042
 3215DECAN   C732137   2.391   7.127   8.189  0.1446  0.3822  0.3116
 3215DECAN   C832138   2.491   7.051   8.279  0.2324  0.2630  0.1124
 3215DECAN   C932139   2.408   6.988   8.392 -0.3888 -0.0489 -0.5061
 3215DECAN  C1032140   2.319   7.074   8.484 -0.1238 -0.3254  0.0183
 3216DECAN   C132141   9.044   2.529  13.768  0.3227 -0.2653 -0.9414
 3216DECAN   C232142   8.977   2.401  13.822  0.4717 -0.0969 -0.3506
 3216DECAN   C332143   9.026   2.348  13.958  0.2723 -0.2214 -0.3257
 3216DECAN   C432144   9.165   2.282  13.962  0.0913 -0.6010 -0.3678
 3216DECAN   C532145   9.171   2.181  14.079 -0.3146 -0.1189  0.0710
 3216DECAN   C632146   9.300   2.101  14.057 -0.2289  0.2917 -1.0108
 3216DECAN   C732147   9.432   2.177  14.083 -0.1440 -0.1411 -0.1432
 3216DECAN   C832148   9.554   2.086  14.060  0.2641  0.2984  0.2562
 3216DECAN   C932149   9.590   2.063  13.912  0.1370  0.1658  0.2452
 3216DECAN  C1032150   9.634   2.193  13.841 -0.4705  0.1032 -0.2617
 3217DECAN   C132151  10.470  10.515   8.307  0.1599 -0.3109  0.4729
 3217DECAN   C232152  10.486  10.525   8.460 -0.0941  0.0067  0.4785
 3217DECAN   C332153  10.491  10.671   8.511 -0.1431  0.2614 -0.2404
 3217DECAN   C432154  10.473  10.660   8.663  0.1709  0.3192 -0.1990
 3217DECAN   C532155  10.381  10.767   8.726 -0.2797 -0.2739  0.1612
 3217DECAN   C632156  10.462  10.896   8.751  0.1581 -0.4068 -0.5296
 3217DECAN   C732157  10.385  11.023   8.794  0.4943 -0.5134  0.3883
 3217DECAN   C832158  10.421  11.151   8.717  0.4848 -0.6516  0.1545
 3217DECAN   C932159  10.539  11.225   8.783 -0.0745  0.4910 -0.1091
 3217DECAN  C1032160  10.499   0.048   8.916 -0.1081  0.3178 -0.0313
 3218DECAN   C132161   3.325   9.287   8.689 -0.0659  0.1115  0.2032
 3218DECAN   C232162   3.240   9.176   8.624  0.5185 -0.1667 -0.0975
 3218DECAN   C332163   3.258   9.169   8.472  0.2311 -0.5844 -0.1157
 3218DECAN   C432164   3.249   9.306   8.401  0.1888 -0.5652 -0.0703
 3218DECAN   C532165   3.257   9.299   8.248 -0.0786  0.2794 -0.1250
 3218DECAN   C632166   3.264   9.438   8.181 -0.5674  0.3800  0.0269
 3218DECAN   C732167   3.216   9.446   8.035  0.1865  0.1049 -0.2401
 3218DECAN   C832168   3.174   9.590   8.001 -0.0589  0.0639 -0.1175
 3218DECAN   C932169   3.291   9.690   8.002  0.1973 -0.2362  0.5861
 3218DECAN  C1032170   3.261   9.839   7.977 -0.1803 -0.3740  0.2117
 3219DECAN   C132171   9.240   3.897   6.800  0.0253  0.0578 -0.1697
 3219DECAN   C232172   9.092   3.897   6.755 -0.1115  0.2635  0.2772
 3219DECAN   C332173   9.011   3.872   6.884 -0.0725 -0.2353  0.2066
 3219DECAN   C432174   8.859   3.880   6.865 -0.0211 -0.2986 -0.2504
 3219DECAN   C532175   8.792   3.886   7.004 -0.3242  0.0089 -0.4077
 3219DECAN   C632176   8.815   3.750   7.072  0.0810  0.1682 -0.2246
 3219DECAN   C732177   8.785   3.787   7.219  0.1955 -0.3250 -0.0739
 3219DECAN   C832178   8.765   3.663   7.307 -0.3071  0.0704  0.3733
 3219DECAN   C932179   8.711   3.694   7.448 -0.1836  0.5421  0.3196
 3219DECAN  C1032180   8.679   3.565   7.526  0.3990  0.1045 -0.1581
 3220DECAN   C132181   6.394  10.294  14.669  0.0251 -0.0564  0.0754
 3220DECAN   C232182   6.245  10.332  14.679  0.0212 -0.0046 -0.1851
 3220DECAN   C332183   6.157  10.228  14.751  0.4102  0.1289  0.4896
 3220DECAN   C432184   6.004  10.244  14.757  0.3988  0.0732  0.3537
 3220DECAN   C532185   5.929  10.138  14.841  0.4898 -0.2023  0.0874
 3220DECAN   C632186   5.781  10.148  14.803  0.3572  0.5361  0.7743
 3220DECAN   C732187   5.682  10.098  14.910  0.0347  0.1722  0.3122
 3220DECAN   C832188   5.532  10.100  14.875  0.1386 -0.4863 -0.1854
 3220DECAN   C932189   5.433  10.091  14.992  0.0801 -0.3746 -0.2255
 3220DECAN  C1032190   5.284  10.079  14.954 -0.0595  0.4814  0.0366
 3221DECAN   C132191   7.334   2.330  12.670  0.4009 -0.0360 -0.2914
 3221DECAN   C232192   7.402   2.317  12.807 -0.1931  0.5442  0.0683
 3221DECAN   C332193   7.339   2.225  12.913  0.0211 -0.0338 -0.2991
 3221DECAN   C432194   7.194   2.274  12.938 -0.0192 -0.3332  0.0556
 3221DECAN   C532195   7.146   2.240  13.080 -0.0264 -0.2731  0.0676
 3221DECAN   C632196   6.992   2.250  13.089  0.0226  0.4275  0.1528
 3221DECAN   C732197   6.903   2.178  12.987  0.2331  0.2336  0.1061
 3221DECAN   C832198   6.760   2.172  13.042  0.2059 -0.3258 -0.0140
 3221DECAN   C932199   6.656   2.110  12.946  0.1771 -0.5215  0.1444
 3221DECAN  C1032200   6.512   2.110  13.000  0.0766 -0.2352 -0.1273
 3222DECAN   C132201   8.171   0.281   9.113  0.3735  0.0146  0.3884
 3222DECAN   C232202   8.069   0.351   9.021  0.4242 -0.1110  0.2362
 3222DECAN   C332203   8.121   0.335   8.876  0.2035  0.5035  0.0873
 3222DECAN   C432204   8.197   0.202   8.864 -0.1504  0.2885  0.2052
 3222DECAN   C532205   8.299   0.205   8.749 -0.2245  0.3064  0.1408
 3222DECAN   C632206   8.391   0.084   8.725 -0.9347 -0.1413 -0.3685
 3222DECAN   C732207   8.495   0.126   8.618 -0.2468 -0.4495  0.1726
 3222DECAN   C832208   8.554   0.267   8.634 -0.7026 -0.1669 -0.5718
 3222DECAN   C932209   8.643   0.313   8.517 -0.2161  0.3145 -0.0234
 3222DECAN  C1032210   8.577   0.319   8.378  0.2505 -0.1762 -0.2675
 3223DECAN   C132211   9.338   6.715   6.412 -0.1371  0.2337 -0.0938
 3223DECAN   C232212   9.307   6.850   6.343 -0.1340  0.2628 -0.0375
 3223DECAN   C332213   9.169   6.880   6.282  0.1375 -0.3634 -0.9772
 3223DECAN   C432214   9.148   7.031   6.263 -0.3007 -0.2507  0.2765
 3223DECAN   C532215   9.037   7.067   6.163  0.0208 -0.3590 -0.1252
 3223DECAN   C632216   9.020   7.218   6.139 -0.1339 -0.4311 -0.4848
 3223DECAN   C732217   9.129   7.286   6.055  0.1414 -0.2359  0.0259
 3223DECAN   C832218   9.090   7.429   6.012 -0.2003 -0.3907 -0.1805
 3223DECAN   C932219   9.189   7.475   5.904 -0.1502  0.5608  0.2601
 3223DECAN  C1032220   9.183   7.629   5.898 -0.6212  0.5208 -0.3731
 3224DECAN   C132221   0.914   2.439  10.895 -0.2072  0.2428 -0.2593
 3224DECAN   C232222   1.018   2.514  10.980 -0.1135  0.0301 -0.1847
 3224DECAN   C332223   1.029   2.471  11.128  0.4536  0.3572 -0.1277
 3224DECAN   C432224   1.153   2.518  11.206  0.4310  0.5247 -0.1896
 3224DECAN   C532225   1.179   2.449  11.342  0.2365  0.1995 -0.3156
 3224DECAN   C632226   1.303   2.481  11.427  0.1844 -0.0374 -0.1496
 3224DECAN   C732227   1.316   2.395  11.554 -0.6414  0.5013  0.3038
 3224DECAN   C832228   1.426   2.444  11.650 -0.1572  0.3729 -0.1855
 3224DECAN   C932229   1.561   2.426  11.577 -0.2144 -0.5342 -0.0783
 3224DECAN  C1032230   1.560   2.504  11.444  0.1602 -0.4650 -0.0422
 3225DECAN   C132231   7.863   9.716   7.742  0.4444 -0.4565 -0.1873
 3225DECAN   C232232   7.886   9.673   7.596  0.1560 -0.0061 -0.3676
 3225DECAN   C332233   7.881   9.520   7.579 -0.8416 -0.0162 -0.0794
 3225DECAN   C432234   7.890   9.475   7.432  0.5226  0.2925 -0.1053
 3225DECAN   C532235   7.953   9.340   7.395  0.2999  0.1487  0.0408
 3225DECAN   C632236   8.106   9.340   7.412  0.2893 -0.2527  0.1710
 3225DECAN   C732237   8.164   9.357   7.554  0.3884 -0.0041  0.1018
 3225DECAN   C832238   8.316   9.378   7.544  0.3773  0.1289  0.2166
 3225DECAN   C932239   8.380   9.336   7.677  0.2110 -0.3054  0.1597
 3225DECAN  C1032240   8.534   9.327   7.680  0.2404 -0.0547 -0.5384
 3226DECAN   C132241   3.562   3.980  11.467 -0.1927 -0.3569  0.1697
 3226DECAN   C232242   3.421   4.033  11.437 -0.1504 -0.3585 -0.0341
 3226DECAN   C332243   3.386   4.182  11.422  0.2630 -0.2983 -0.3818
 3226DECAN   C432244   3.235   4.213  11.419  0.3375  0.1023 -0.1293
 3226DECAN   C532245   3.210   4.365  11.416  0.2913  0.0934 -0.1987
 3226DECAN   C632246   3.079   4.416  11.479  0.2715 -0.2111  0.0090
 3226DECAN   C732247   3.049   4.566  11.465 -0.2203 -0.3701 -0.6540
 3226DECAN   C832248   3.175   4.648  11.497 -0.4773 -0.1800 -0.1120
 3226DECAN   C932249   3.232   4.739  11.386 -0.5205  0.3462  0.2889
 3226DECAN  C1032250   3.287   4.864  11.456 -0.0896 -0.0872  0.7357
 3227DECAN   C132251   9.121   9.053   8.865  0.4091  0.9868 -0.5719
 3227DECAN   C232252   8.997   9.135   8.905  0.0151 -0.2851  0.8923
 3227DECAN   C332253   8.867   9.067   8.857  0.4796 -1.0067  0.6361
 3227DECAN   C432254   8.858   9.043   8.705 -0.0419  0.2584  0.4579
 3227DECAN   C532255   8.984   8.977   8.646 -0.3999 -0.0388  0.0139
 3227DECAN   C632256   9.012   8.992   8.496  0.1543 -0.0199  0.1174
 3227DECAN   C732257   8.898   8.919   8.422  0.2938 -0.0369 -0.0822
 3227DECAN   C832258   8.922   8.895   8.271 -0.4066  0.7509 -0.3243
 3227DECAN   C932259   8.830   8.798   8.194 -0.4564  0.4223  0.1398
 3227DECAN  C1032260   8.681   8.837   8.198 -0.6579 -0.3121 -0.1880
 3228DECAN   C132261   1.864  10.997  12.767 -0.0581  0.7006  0.1366
 3228DECAN   C232262   1.756  11.034  12.664  0.0480 -0.3983 -0.3801
 3228DECAN   C332263   1.612  11.022  12.718 -0.0433 -0.7967 -0.7086
 3228DECAN   C432264   1.508  11.046  12.607 -0.4720  0.0034 -0.1404
 3228DECAN   C532265   1.364  11.001  12.640 -0.3584 -0.3548 -0.1379
 3228DECAN   C632266   1.272  11.029  12.520  0.3464 -0.2368 -0.6596
 3228DECAN   C732267   1.248  11.180  12.501 -0.5129 -0.2395  0.3158
 3228DECAN   C832268   1.157  11.208  12.379  0.2393  0.6745 -0.0522
 3228DECAN   C932269   1.135   0.113  12.349  0.0112  0.6035 -0.2330
 3228DECAN  C1032270   1.061   0.142  12.217 -0.4202 -0.2870 -0.1968
 3229DECAN   C132271   3.145   9.052  12.313 -0.4492 -0.1723  0.2579
 3229DECAN   C232272   3.175   9.094  12.168 -0.3972 -0.3298  0.2220
 3229DECAN   C332273   3.059   9.056  12.074  0.1436 -1.0263 -0.1764
 3229DECAN   C432274   3.079   9.081  11.924 -0.5632  0.0832 -0.0989
 3229DECAN   C532275   2.962   9.019  11.844 -0.3043 -0.0828 -0.3509
 3229DECAN   C632276   2.832   9.100  11.858  0.1407  0.5693  0.0492
 3229DECAN   C732277   2.716   9.027  11.789  0.4681  0.3774 -0.3014
 3229DECAN   C832278   2.574   9.069  11.831  0.5286 -0.2594  0.5663
 3229DECAN   C932279   2.462   8.985  11.766  0.2427  0.1869  0.4805
 3229DECAN  C1032280   2.314   9.011  11.801 -0.0163  0.0043 -0.4506
 3230DECAN   C132281   8.241   9.762   5.493 -0.0486 -0.1774  0.0483
 3230DECAN   C232282   8.187   9.767   5.637 -0.0327  0.0474  0.0485
 3230DECAN   C332283   8.290   9.803   5.746  0.3064 -0.2052 -0.1861
 3230DECAN   C432284   8.397   9.696   5.778  0.7391  0.2322 -0.1682
 3230DECAN   C532285   8.467   9.688   5.916 -0.1084  0.2502  0.2686
 3230DECAN   C632286   8.412   9.576   6.006 -0.1101 -0.2748 -0.3816
 3230DECAN   C732287   8.430   9.589   6.158 -0.3200  0.2802 -0.4046
 3230DECAN   C832288   8.346   9.703   6.220 -0.0360  0.2395  0.0590
 3230DECAN   C932289   8.368   9.722   6.371  0.2364  0.2166  0.0229
 3230DECAN  C1032290   8.286   9.841   6.425  0.3166  0.2485  0.0734
 3231DECAN   C132291   9.644   1.939   7.102  0.1614  0.4988 -0.5948
 3231DECAN   C232292   9.675   2.081   7.050  0.5590  0.6445  0.0335
 3231DECAN   C332293   9.601   2.134   6.926 -0.3561  0.3567  0.4424
 3231DECAN   C432294   9.654   2.274   6.890  0.3737 -0.0254 -0.0039
 3231DECAN   C532295   9.589   2.330   6.762 -0.4958 -0.5845  0.1888
 3231DECAN   C632296   9.605   2.482   6.742 -0.0823 -0.6286  0.1729
 3231DECAN   C732297   9.524   2.549   6.630  0.4447  0.1544  0.2582
 3231DECAN   C832298   9.520   2.469   6.499 -0.4664  0.1128  0.3051
 3231DECAN   C932299   9.424   2.352   6.470  0.0355 -0.4375  0.8456
 3231DECAN  C1032300   9.467   2.285   6.339 -0.8049  0.1123  0.2770
 3232DECAN   C132301   1.958   2.250  13.666  0.4369 -0.7050  0.6758
 3232DECAN   C232302   2.014   2.159  13.555 -0.2651  0.0491 -0.3183
 3232DECAN   C332303   1.949   2.021  13.572  0.0801 -0.1089 -0.2795
 3232DECAN   C432304   2.000   1.900  13.491  0.1364 -0.1888 -0.1254
 3232DECAN   C532305   1.951   1.762  13.537  0.1507 -0.1159  0.1109
 3232DECAN   C632306   2.007   1.653  13.444 -0.4660 -0.6981  0.4176
 3232DECAN   C732307   1.943   1.516  13.474 -0.9323 -0.6167 -0.1882
 3232DECAN   C832308   2.013   1.396  13.407  0.2160 -0.0484 -0.0197
 3232DECAN   C932309   1.962   1.256  13.444  0.0593 -0.0209 -0.1293
 3232DECAN  C1032310   2.048   1.197  13.558 -0.4285 -0.7423 -0.1228
 3233DECAN   C132311   3.713   7.061  14.722  0.0055 -0.5170  0.0346
 3233DECAN   C232312   3.643   7.196  14.749  0.0746 -0.4675 -0.0327
 3233DECAN   C332313   3.586   7.211  14.891  0.1969  0.1722 -0.0494
 3233DECAN   C432314   3.465   7.119  14.913  0.0037  0.3429 -0.3987
 3233DECAN   C532315   3.383   7.169  15.034  0.0201 -0.0576 -0.2201
 3233DECAN   C632316   3.256   7.092  15.073  0.2712 -0.3769 -0.0325
 3233DECAN   C732317   3.124   7.166  15.043  0.4396  0.0826  0.3474
 3233DECAN   C832318   3.010   7.078  15.098 -0.0576  0.3428 -0.2558
 3233DECAN   C932319   2.872   7.139  15.067 -0.1684  0.1328 -0.1736
 3233DECAN  C1032320   2.772   7.052  15.146  0.1994  0.1529  0.3198
 3234DECAN   C132321   1.768   1.440  13.119 -0.1617 -0.2489  0.2796
 3234DECAN   C232322   1.634   1.489  13.061  0.0236 -1.0629 -0.8593
 3234DECAN   C332323   1.505   1.425  13.118 -0.2692 -0.2376 -0.5833
 3234DECAN   C432324   1.381   1.495  13.060 -0.0956  0.2749 -0.3488
 3234DECAN   C532325   1.247   1.444  13.116 -0.0984  0.3003 -0.3323
 3234DECAN   C632326   1.129   1.485  13.026 -0.0913 -0.3400 -0.6412
 3234DECAN   C732327   1.147   1.630  12.978  0.0821 -0.2591 -0.3363
 3234DECAN   C832328   1.017   1.686  12.917 -0.0885 -0.0110  0.2413
 3234DECAN   C932329   1.035   1.818  12.840 -0.0760 -0.3339 -0.3150
 3234DECAN  C1032330   0.912   1.904  12.806 -0.0767 -0.3571 -0.3716
 3235DECAN   C132331   1.734   6.905  11.659 -0.1831  0.5472 -0.2397
 3235DECAN   C232332   1.650   6.851  11.777  0.5302 -0.5088 -0.2024
 3235DECAN   C332333   1.509   6.813  11.729  0.4163  0.2889 -0.5025
 3235DECAN   C432334   1.496   6.682  11.649  0.7696 -0.0927  0.0656
 3235DECAN   C532335   1.559   6.682  11.509 -0.1610 -0.4548 -0.3640
 3235DECAN   C632336   1.543   6.542  11.446  0.2731 -0.7763  0.2330
 3235DECAN   C732337   1.635   6.477  11.341 -0.0345 -0.3519 -0.2984
 3235DECAN   C832338   1.673   6.568  11.222  0.2655  0.0846  0.1241
 3235DECAN   C932339   1.770   6.504  11.121  0.2037 -0.0849  0.1719
 3235DECAN  C1032340   1.853   6.613  11.051 -0.0088  0.3531  0.5925
 3236DECAN   C132341   8.533   2.433   3.982  0.3140  0.3802  0.5991
 3236DECAN   C232342   8.612   2.565   3.994  0.2508  0.4952 -0.1827
 3236DECAN   C332343   8.762   2.571   3.959  0.4439 -0.1037  0.5242
 3236DECAN   C432344   8.828   2.707   3.985  0.0751  0.2084 -0.1572
 3236DECAN   C532345   8.979   2.705   4.015  0.1298  0.5643 -0.4082
 3236DECAN   C632346   9.047   2.841   4.040 -0.1394  0.5274  0.5414
 3236DECAN   C732347   9.198   2.836   4.068  0.0179 -0.1590 -0.3951
 3236DECAN   C832348   9.265   2.935   4.165 -0.1556 -0.5835  0.1659
 3236DECAN   C932349   9.417   2.931   4.141 -0.0959 -0.1075  0.4468
 3236DECAN  C1032350   9.474   3.064   4.194 -0.6262  0.5502 -0.5970
 3237DECAN   C132351   3.420   9.167  11.479  0.2330  0.2046  0.3780
 3237DECAN   C232352   3.483   9.229  11.605  0.2706  0.4634  0.2319
 3237DECAN   C332353   3.370   9.288  11.692 -0.2917  0.0518 -0.2088
 3237DECAN   C432354   3.281   9.391  11.620 -0.0107  0.0976 -0.4942
 3237DECAN   C532355   3.155   9.436  11.697  0.5495  0.3753  0.2667
 3237DECAN   C632356   3.082   9.551  11.625 -0.4054 -0.3468  0.0795
 3237DECAN   C732357   2.963   9.596  11.712 -0.1359  0.0502  0.2400
 3237DECAN   C832358   2.861   9.698  11.659 -0.0305  0.0060 -0.0487
 3237DECAN   C932359   2.767   9.767  11.759  0.0834 -0.2513  0.2385
 3237DECAN  C1032360   2.694   9.891  11.702 -0.0248 -0.3628  0.1336
 3238DECAN   C132361   5.230   5.590   5.531  0.0256  0.5649 -0.1351
 3238DECAN   C232362   5.288   5.467   5.603 -0.1505  0.5199 -0.0690
 3238DECAN   C332363   5.245   5.454   5.751  0.6190  0.4990  0.1603
 3238DECAN   C432364   5.350   5.373   5.827  0.6123  0.0341 -0.3200
 3238DECAN   C532365   5.327   5.365   5.979  0.0978 -0.0979 -0.4058
 3238DECAN   C632366   5.428   5.278   6.056  0.1391  0.0947 -0.2415
 3238DECAN   C732367   5.423   5.278   6.210  0.2932  0.2042 -0.2358
 3238DECAN   C832368   5.505   5.396   6.264 -0.1006  0.5179 -0.3135
 3238DECAN   C932369   5.534   5.392   6.415  0.0753  0.2212 -0.3542
 3238DECAN  C1032370   5.580   5.519   6.489 -0.2497  0.2610 -0.2190
 3239DECAN   C132371   6.145   6.918  11.983 -0.2883  0.0642  0.0364
 3239DECAN   C232372   6.124   7.059  11.923  0.4440  0.2318  0.1591
 3239DECAN   C332373   6.102   7.049  11.771  0.2078 -0.1478  0.2162
 3239DECAN   C432374   6.070   7.172  11.684 -0.0815 -0.6182 -0.3562
 3239DECAN   C532375   6.191   7.261  11.652 -0.1406 -0.3383  0.1849
 3239DECAN   C632376   6.149   7.409  11.642 -0.2885 -0.3666  0.3755
 3239DECAN   C732377   6.037   7.444  11.542  0.0105  0.2570  0.2502
 3239DECAN   C832378   5.907   7.373  11.585  0.0801  0.0225  0.0742
 3239DECAN   C932379   5.792   7.385  11.482  0.1433 -0.5328 -0.0652
 3239DECAN  C1032380   5.831   7.330  11.344  0.4238  0.0065 -0.2050
 3240DECAN   C132381   7.832   2.462  14.117 -0.2326 -0.2080 -0.2751
 3240DECAN   C232382   7.959   2.410  14.047  0.1634  0.3465  0.0256
 3240DECAN   C332383   8.025   2.293  14.121  0.2437  0.3631 -0.0190
 3240DECAN   C432384   8.140   2.234  14.037 -0.3632 -0.0271 -0.5847
 3240DECAN   C532385   8.208   2.119  14.114 -0.0194  0.6450  0.1252
 3240DECAN   C632386   8.354   2.088  14.079 -0.1699 -0.1531  0.1787
 3240DECAN   C732387   8.428   1.989  14.170 -0.3401 -0.1597  0.3100
 3240DECAN   C832388   8.569   1.946  14.124 -0.5392 -0.1981 -0.2810
 3240DECAN   C932389   8.655   2.062  14.072  0.2023 -0.2120  0.8587
 3240DECAN  C1032390   8.798   2.016  14.040  0.0684 -0.0932  0.0492
 3241DECAN   C132391   9.878   1.449  14.683 -0.0293 -0.3213 -0.9140
 3241DECAN   C232392   9.822   1.593  14.676  0.7609  0.0707  0.4736
 3241DECAN   C332393   9.893   1.689  14.580  0.0123 -0.4242 -0.6012
 3241DECAN   C432394   9.810   1.816  14.551  0.2207 -0.1174  0.1174
 3241DECAN   C532395   9.870   1.912  14.447  0.3367 -0.0503  0.2471
 3241DECAN   C632396   9.844   1.867  14.302  0.0593  0.4493  0.1396
 3241DECAN   C732397   9.874   1.963  14.186  0.3023  0.4801  0.2282
 3241DECAN   C832398  10.026   1.986  14.179  0.4188 -0.2838  0.1610
 3241DECAN   C932399  10.067   2.084  14.067 -0.6669  0.0841  0.0770
 3241DECAN  C1032400  10.008   2.059  13.927  0.0136  0.3066 -0.2553
 3242DECAN   C132401  10.175   8.785  11.632  0.3177  0.2516  0.0406
 3242DECAN   C232402  10.236   8.744  11.496  0.0461 -0.2086  0.0572
 3242DECAN   C332403  10.138   8.660  11.412  0.0677  0.1369 -0.3151
 3242DECAN   C432404  10.181   8.628  11.267  0.1319  0.7241 -0.4250
 3242DECAN   C532405  10.069   8.639  11.162  0.5591 -0.4479 -1.0182
 3242DECAN   C632406   9.965   8.525  11.166  0.0156  0.0688  0.1712
 3242DECAN   C732407   9.832   8.562  11.097  0.1613  0.0614 -0.1178
 3242DECAN   C832408   9.834   8.614  10.952  0.0619  0.1141 -0.1004
 3242DECAN   C932409   9.704   8.689  10.919 -0.3105 -0.2251  0.5802
 3242DECAN  C1032410   9.689   8.798  11.027 -0.2536  0.2737  0.0881
 3243DECAN   C132411   6.187   4.549   8.247 -0.1991  0.1277  0.3650
 3243DECAN   C232412   6.163   4.412   8.181 -0.5245  0.4072 -0.1125
 3243DECAN   C332413   6.284   4.330   8.132 -0.4301  0.1236  0.5796
 3243DECAN   C432414   6.255   4.187   8.081 -0.3183 -0.0360  0.9629
 3243DECAN   C532415   6.388   4.133   8.026 -0.2617  0.4637  0.5998
 3243DECAN   C632416   6.486   4.082   8.134 -0.2810 -0.1260  0.3428
 3243DECAN   C732417   6.529   4.205   8.215  0.1115  0.0972 -0.2050
 3243DECAN   C832418   6.656   4.180   8.298 -0.0919  0.0709  0.0981
 3243DECAN   C932419   6.784   4.145   8.220  0.0068 -0.2465  0.3973
 3243DECAN  C1032420   6.913   4.104   8.294 -0.0729 -0.3677  0.4670
 3244DECAN   C132421   4.663   9.703   5.358  0.0081  0.4629  0.4960
 3244DECAN   C232422   4.730   9.809   5.447 -0.4255  0.5593  0.7109
 3244DECAN   C332423   4.738   9.948   5.381 -0.1644  0.3290  0.2532
 3244DECAN   C432424   4.820  10.051   5.462 -0.0081  0.3194  0.1081
 3244DECAN   C532425   4.888  10.160   5.377 -0.0189 -0.0599 -0.3919
 3244DECAN   C632426   4.971  10.274   5.439  0.1793 -0.2240 -0.3508
 3244DECAN   C732427   5.004  10.372   5.325 -0.6040  0.1201 -0.2888
 3244DECAN   C832428   5.116  10.471   5.362 -0.3350 -0.6529  1.0086
 3244DECAN   C932429   5.088  10.568   5.478 -0.1718  0.3832  0.1894
 3244DECAN  C1032430   5.214  10.610   5.555 -0.2095  0.0819  0.4131
 3245DECAN   C132431   8.005   7.846  11.694 -0.0618  0.4502  0.6504
 3245DECAN   C232432   8.136   7.834  11.773  0.3443  0.5040 -0.0052
 3245DECAN   C332433   8.198   7.696  11.746  0.0137  0.3932 -0.1963
 3245DECAN   C432434   8.335   7.678  11.814 -0.3451  0.0253  0.4365
 3245DECAN   C532435   8.462   7.761  11.792 -0.2145 -0.2128  0.2840
 3245DECAN   C632436   8.592   7.707  11.855 -0.2910 -0.3267  0.3435
 3245DECAN   C732437   8.721   7.787  11.833 -0.5252  0.0896  0.4916
 3245DECAN   C832438   8.746   7.788  11.681  0.1390 -0.1063  0.5966
 3245DECAN   C932439   8.621   7.843  11.609  0.2019 -0.3897  0.2697
 3245DECAN  C1032440   8.655   7.890  11.466  0.1134  0.4565  0.5232
 3246DECAN   C132441   2.698  10.377   8.255  0.2319 -0.0803  0.3883
 3246DECAN   C232442   2.755  10.369   8.112 -0.2640 -0.1296  0.1908
 3246DECAN   C332443   2.658  10.442   8.017  0.2491 -0.0630 -0.2894
 3246DECAN   C432444   2.681  10.433   7.865 -0.0461  0.4154 -0.3627
 3246DECAN   C532445   2.806  10.509   7.817  0.1715  0.3732  0.1347
 3246DECAN   C632446   2.840  10.469   7.673 -0.0782 -0.3295  0.2673
 3246DECAN   C732447   2.973  10.528   7.621 -0.3581  0.1996  0.1415
 3246DECAN   C832448   3.026  10.464   7.492 -0.3822 -0.3429  0.3960
 3246DECAN   C932449   3.155  10.525   7.434 -0.3200 -0.8908 -0.0572
 3246DECAN  C1032450   3.208  10.460   7.305 -0.5767  0.0543 -0.6504
 3247DECAN   C132451   2.958   9.011   7.532  0.0774 -0.9399 -0.6541
 3247DECAN   C232452   2.860   9.004   7.650  0.2733  0.1488 -0.4200
 3247DECAN   C332453   2.931   9.024   7.786 -0.2325 -0.2005 -0.0993
 3247DECAN   C432454   2.843   9.015   7.912  0.5110  0.1002  0.4477
 3247DECAN   C532455   2.752   9.139   7.927 -0.3094 -0.4666  0.2326
 3247DECAN   C632456   2.648   9.133   8.040 -0.5993 -0.6425 -0.0425
 3247DECAN   C732457   2.572   9.267   8.057  0.1243 -0.2099 -0.1935
 3247DECAN   C832458   2.446   9.290   7.971  0.2344  0.2910 -0.2229
 3247DECAN   C932459   2.416   9.441   7.964  0.1059  0.2875  0.2150
 3247DECAN  C1032460   2.462   9.530   8.081 -0.2096  0.3104  0.3210
 3248DECAN   C132461   4.268   8.314   4.800 -0.1585 -0.3300 -0.8059
 3248DECAN   C232462   4.394   8.260   4.871 -0.1701 -0.0014 -0.5328
 3248DECAN   C332463   4.413   8.109   4.847  0.4020  0.0300 -0.2891
 3248DECAN   C432464   4.273   8.044   4.842  0.1824  0.5038 -0.3904
 3248DECAN   C532465   4.215   8.059   4.700  0.1123  0.2794 -0.3866
 3248DECAN   C632466   4.091   7.970   4.680  0.0514  0.3108 -0.1506
 3248DECAN   C732467   4.019   7.976   4.544  0.2594  0.2863 -0.2633
 3248DECAN   C832468   3.944   8.108   4.523  0.4224  0.4590  0.2309
 3248DECAN   C932469   4.033   8.234   4.526  0.5334  0.3976 -0.3830
 3248DECAN  C1032470   3.960   8.369   4.516  0.8648  0.6253  0.2239
 3249DECAN   C132471   2.197  10.478  12.111 -0.5010 -0.1795 -0.6928
 3249DECAN   C232472   2.132  10.617  12.125  0.0356  0.0735 -0.6897
 3249DECAN   C332473   2.076  10.671  11.992  0.1635  0.7100 -0.4933
 3249DECAN   C432474   1.950  10.594  11.947  0.9175 -0.7801 -0.1285
 3249DECAN   C532475   1.852  10.564  12.062 -0.1959 -0.0371 -0.8615
 3249DECAN   C632476   1.744  10.456  12.049 -0.5377  0.2545 -0.4833
 3249DECAN   C732477   1.652  10.437  12.171  0.3271 -0.3629  0.0830
 3249DECAN   C832478   1.545  10.326  12.169  0.4079 -0.4491  0.4590
 3249DECAN   C932479   1.499  10.282  12.309  0.2259  0.4276  0.6808
 3249DECAN  C1032480   1.384  10.181  12.291 -0.3492  1.1158  0.4252
 3250DECAN   C132481   3.352   7.495   5.454 -0.0437 -0.2791 -0.6397
 3250DECAN   C232482   3.456   7.408   5.528  0.2757  0.3448 -0.3467
 3250DECAN   C332483   3.513   7.294   5.441  0.0771 -0.1081  0.1128
 3250DECAN   C432484   3.555   7.340   5.300 -0.4338 -0.1697 -0.0624
 3250DECAN   C532485   3.608   7.230   5.206 -0.1609  0.1564 -0.2951
 3250DECAN   C632486   3.666   7.276   5.071 -0.1013  0.1270 -0.2796
 3250DECAN   C732487   3.718   7.153   4.996  0.0914  0.0677 -0.0507
 3250DECAN   C832488   3.811   7.179   4.876  0.5552 -0.2524  0.2354
 3250DECAN   C932489   3.753   7.253   4.754 -0.3186 -0.8733  0.2690
 3250DECAN  C1032490   3.870   7.299   4.665 -0.4335 -0.2783  0.4231
 3251DECAN   C132491   8.395   3.846   8.225  0.0807 -0.7411  0.4472
 3251DECAN   C232492   8.503   3.758   8.159  0.5052  0.3039 -0.3004
 3251DECAN   C332493   8.465   3.710   8.018 -0.2275 -0.5313  0.1641
 3251DECAN   C432494   8.351   3.606   8.020 -0.1743 -0.6029 -0.2873
 3251DECAN   C532495   8.303   3.576   7.877  0.3898  0.4440 -0.7068
 3251DECAN   C632496   8.361   3.450   7.811 -0.1822 -0.2074  0.0139
 3251DECAN   C732497   8.324   3.439   7.662 -0.5459  0.1145  0.0795
 3251DECAN   C832498   8.377   3.315   7.587 -0.1247  0.1297  0.3508
 3251DECAN   C932499   8.310   3.281   7.453  0.1114 -0.2785  0.3356
 3251DECAN  C1032500   8.171   3.216   7.473  0.0159 -0.1148  0.2101
 3252DECAN   C132501   6.337   4.814  10.507  0.3377 -0.0584  0.3664
 3252DECAN   C232502   6.331   4.959  10.558  0.3177 -0.1963  0.7610
 3252DECAN   C332503   6.470   5.024  10.559  0.3194 -0.1673 -0.2772
 3252DECAN   C432504   6.478   5.165  10.622 -0.0433 -0.0814 -0.4181
 3252DECAN   C532505   6.377   5.268  10.568 -0.2747 -0.2327 -0.2744
 3252DECAN   C632506   6.433   5.409  10.547 -0.1706 -0.0503  1.0934
 3252DECAN   C732507   6.335   5.514  10.491  0.4254 -0.3217 -0.5285
 3252DECAN   C832508   6.378   5.661  10.482 -0.6973  0.0586  0.1443
 3252DECAN   C932509   6.300   5.740  10.374 -0.1954  0.1946 -0.1200
 3252DECAN  C1032510   6.373   5.869  10.332 -0.3853  0.1729 -0.5126
 3253DECAN   C132511   7.764   2.269   6.723  0.0489  0.0607  0.1050
 3253DECAN   C232512   7.898   2.336   6.687  0.1266 -0.1116  0.0754
 3253DECAN   C332513   7.968   2.305   6.553  0.2642  0.0663  0.1058
 3253DECAN   C432514   7.888   2.328   6.423  0.2744  0.5932  0.1911
 3253DECAN   C532515   7.932   2.243   6.303 -0.1671 -0.1688  0.5621
 3253DECAN   C632516   8.083   2.213   6.306 -0.2622 -0.7722 -0.2525
 3253DECAN   C732517   8.132   2.203   6.160  0.1587 -0.1153 -0.1638
 3253DECAN   C832518   8.286   2.202   6.151  0.1823  0.3326  0.1503
 3253DECAN   C932519   8.336   2.086   6.239 -0.5212  0.0248  0.1530
 3253DECAN  C1032520   8.292   2.101   6.386  0.1174 -0.3430  0.3888
 3254DECAN   C132521   1.684   4.434   9.238 -0.0299  0.4642  0.1996
 3254DECAN   C232522   1.590   4.318   9.199 -0.1450  0.4468  0.5267
 3254DECAN   C332523   1.644   4.200   9.115 -0.5225  0.3520  0.4136
 3254DECAN   C432524   1.759   4.117   9.175  0.1265  0.4433 -0.6767
 3254DECAN   C532525   1.886   4.200   9.196  0.0476  0.3478  0.2260
 3254DECAN   C632526   1.995   4.103   9.246 -0.0883  0.0227 -0.1028
 3254DECAN   C732527   2.125   4.186   9.254 -0.4001  0.5010  0.0225
 3254DECAN   C832528   2.254   4.105   9.272 -0.6942 -0.0731 -0.4011
 3254DECAN   C932529   2.285   4.027   9.143 -0.7404 -0.1438 -0.3694
 3254DECAN  C1032530   2.271   4.107   9.012  0.0280  0.1279 -0.2883
 3255DECAN   C132531   4.302   0.380  14.701  0.2893  0.3213 -0.0967
 3255DECAN   C232532   4.455   0.381  14.720  0.3255  0.5828 -0.3937
 3255DECAN   C332533   4.501   0.314  14.850 -0.0833  0.7420 -0.1636
 3255DECAN   C432534   4.457   0.386  14.979  0.6338  0.1351  0.4330
 3255DECAN   C532535   4.544   0.506  15.022  0.2062  0.4488  0.4366
 3255DECAN   C632536   4.535   0.604  14.904  0.1261  0.1914  0.2265
 3255DECAN   C732537   4.635   0.719  14.926  0.1971  0.1399  0.1705
 3255DECAN   C832538   4.621   0.827  14.817 -0.6449 -0.2841 -0.1464
 3255DECAN   C932539   4.615   0.757  14.680 -0.1004 -0.2345 -0.1958
 3255DECAN  C1032540   4.624   0.849  14.556  0.3696 -0.4291 -0.3087
 3256DECAN   C132541   2.220   7.981   9.214 -0.6181  0.5955 -0.1747
 3256DECAN   C232542   2.302   8.038   9.331 -0.1481 -0.2540 -0.0825
 3256DECAN   C332543   2.382   8.164   9.293 -0.5316  0.1446  0.4051
 3256DECAN   C432544   2.480   8.193   9.408  0.1696  0.1690 -0.1961
 3256DECAN   C532545   2.417   8.242   9.539  0.3394 -0.1442  0.0034
 3256DECAN   C632546   2.512   8.318   9.633  0.2260 -0.0654  0.0533
 3256DECAN   C732547   2.604   8.431   9.584  0.2551 -0.1142 -0.0032
 3256DECAN   C832548   2.551   8.555   9.509  0.2416 -0.1306 -0.0195
 3256DECAN   C932549   2.480   8.658   9.598  0.2782  0.0469 -0.1944
 3256DECAN  C1032550   2.459   8.791   9.524 -0.1733  0.1400  0.0978
 3257DECAN   C132551   5.459   8.138   7.921  0.4412 -0.0714 -0.6210
 3257DECAN   C232552   5.397   8.278   7.938  0.5182 -0.0935 -0.1477
 3257DECAN   C332553   5.251   8.271   7.889  0.4575 -0.0243  0.0229
 3257DECAN   C432554   5.193   8.410   7.857  0.1546  0.1484  1.2805
 3257DECAN   C532555   5.039   8.411   7.846  0.1960 -0.2282  0.5759
 3257DECAN   C632556   4.982   8.551   7.821  0.5723 -0.2866 -0.6569
 3257DECAN   C732557   4.834   8.567   7.781  0.3124  0.2026  0.4602
 3257DECAN   C832558   4.750   8.527   7.904 -0.0025 -0.2069  0.1159
 3257DECAN   C932559   4.798   8.609   8.025 -0.0090  0.1328 -0.1113
 3257DECAN  C1032560   4.761   8.553   8.164  0.0385  0.3667 -0.0029
 3258DECAN   C132561   3.112   8.766   4.066 -0.3019 -0.1255  0.1675
 3258DECAN   C232562   3.257   8.723   4.034 -0.1540  0.1275  0.4941
 3258DECAN   C332563   3.292   8.573   4.037  0.0245  0.1455 -0.4103
 3258DECAN   C432564   3.440   8.549   4.002  0.2109 -0.0286  0.4906
 3258DECAN   C532565   3.466   8.398   3.991 -0.0851 -0.0478  0.0199
 3258DECAN   C632566   3.615   8.360   3.978 -0.1529 -0.4024  0.2580
 3258DECAN   C732567   3.702   8.415   3.863 -0.0300  0.2523  0.6636
 3258DECAN   C832568   3.853   8.393   3.885  0.0151  0.1860  0.2887
 3258DECAN   C932569   3.894   8.250   3.924 -0.0247 -0.0326 -0.4476
 3258DECAN  C1032570   3.804   8.171   4.021  0.0125  0.1003 -0.3047
 3259DECAN   C132571   1.796   6.301  15.159  0.4240  0.0770 -0.1476
 3259DECAN   C232572   1.941   6.257  15.130  0.6390  0.3950  0.4298
 3259DECAN   C332573   2.015   6.367  15.052 -0.0373  0.3543 -0.2792
 3259DECAN   C432574   2.163   6.338  15.022 -0.0920  0.1517 -0.3574
 3259DECAN   C532575   2.262   6.315  15.138 -0.1780  0.0297 -0.3082
 3259DECAN   C632576   2.405   6.301  15.083  0.0628 -0.1462  0.3538
 3259DECAN   C732577   2.418   6.204  14.964  0.3549  0.5255 -0.1689
 3259DECAN   C832578   2.432   6.057  15.007  0.0244  0.6435  0.3443
 3259DECAN   C932579   2.452   5.960  14.889 -0.5629  0.6944  0.1993
 3259DECAN  C1032580   2.393   5.820  14.912 -0.6328  0.7238  0.2008
 3260DECAN   C132581   1.245   6.570   8.062 -0.0781  0.5181 -0.3817
 3260DECAN   C232582   1.243   6.645   8.197 -0.0518  0.0900 -0.1391
 3260DECAN   C332583   1.330   6.772   8.196 -0.3973  0.3385  0.6644
 3260DECAN   C432584   1.292   6.887   8.102  0.1759  0.2174  0.2787
 3260DECAN   C532585   1.396   7.000   8.092  0.6501 -0.2454 -0.0782
 3260DECAN   C632586   1.351   7.120   8.006 -0.4583 -0.4559  0.2024
 3260DECAN   C732587   1.439   7.244   7.984 -0.5387 -0.6280 -1.2049
 3260DECAN   C832588   1.357   7.375   7.978  0.4989  0.2184  1.5078
 3260DECAN   C932589   1.426   7.512   7.978  0.9197  0.0361 -0.4213
 3260DECAN  C1032590   1.332   7.625   7.932  0.2667 -0.8528 -1.3024
 3261DECAN   C132591   2.033   1.854   9.373 -0.1002  0.2446  0.0830
 3261DECAN   C232592   1.899   1.816   9.439 -0.0578  0.2031  0.1454
 3261DECAN   C332593   1.871   1.871   9.580 -0.1384  0.7601 -0.0879
 3261DECAN   C432594   1.725   1.858   9.627 -0.1917 -0.4142 -0.5549
 3261DECAN   C532595   1.694   1.893   9.774  0.1821  0.3125 -0.6445
 3261DECAN   C632596   1.567   1.831   9.837  0.1798  0.2743 -0.6864
 3261DECAN   C732597   1.502   1.924   9.941  0.5378 -0.2022 -0.0297
 3261DECAN   C832598   1.376   1.878  10.016  0.3152 -0.1831 -0.3861
 3261DECAN   C932599   1.339   1.980  10.126  0.3720 -0.2577 -0.2974
 3261DECAN  C1032600   1.429   1.995  10.250  0.3425 -0.5155 -0.2435
 3262DECAN   C132601   8.049   9.572   9.305  0.5469  0.2641  0.2399
 3262DECAN   C232602   7.900   9.562   9.265  0.7321 -0.2425 -0.3355
 3262DECAN   C332603   7.869   9.641   9.136 -0.4472  0.7010  0.5091
 3262DECAN   C432604   7.723   9.669   9.098 -0.4089 -0.3620 -0.4624
 3262DECAN   C532605   7.711   9.741   8.963  0.1538 -0.0112 -0.3279
 3262DECAN   C632606   7.772   9.882   8.952  0.1498 -0.0312 -0.6181
 3262DECAN   C732607   7.925   9.880   8.940  0.1986 -0.2526  0.0574
 3262DECAN   C832608   8.000  10.003   8.887 -0.1301 -0.0431  0.0760
 3262DECAN   C932609   8.150   9.970   8.879  0.0258  0.5976  0.2848
 3262DECAN  C1032610   8.243  10.089   8.849  0.5178  0.1319 -0.0903
 3263DECAN   C132611   2.112   1.534   6.668 -0.1513 -0.1369  0.1289
 3263DECAN   C232612   2.250   1.598   6.689  0.0085 -0.3148 -0.3742
 3263DECAN   C332613   2.298   1.691   6.576  0.3803 -0.4144 -0.3010
 3263DECAN   C432614   2.443   1.740   6.561  0.2920  0.2068  0.7340
 3263DECAN   C532615   2.485   1.805   6.428  0.3372 -0.1479  0.5734
 3263DECAN   C632616   2.626   1.865   6.438  0.2941  0.1266 -0.3345
 3263DECAN   C732617   2.643   1.981   6.539  0.0431  0.2186 -0.3991
 3263DECAN   C832618   2.788   2.026   6.560 -0.0161  0.3843 -0.3489
 3263DECAN   C932619   2.773   2.148   6.653  0.2772  0.4880 -0.4365
 3263DECAN  C1032620   2.913   2.193   6.698  0.1066  0.7918 -0.2068
 3264DECAN   C132621   9.779   5.106   5.235  0.4077 -0.1917 -0.1129
 3264DECAN   C232622   9.671   5.000   5.208  0.1528 -0.0574  0.3652
 3264DECAN   C332623   9.586   4.953   5.327 -0.7410  0.0892 -0.2025
 3264DECAN   C432624   9.503   4.829   5.289 -0.2727 -0.2605 -0.0914
 3264DECAN   C532625   9.423   4.862   5.162 -0.5328  0.2823  0.2086
 3264DECAN   C632626   9.322   4.747   5.147 -0.4357  0.2507 -0.2358
 3264DECAN   C732627   9.371   4.612   5.091 -0.2838  0.1251  0.1940
 3264DECAN   C832628   9.248   4.520   5.089  0.0576 -0.3478  0.5462
 3264DECAN   C932629   9.289   4.378   5.047  0.1024 -0.1438 -0.1103
 3264DECAN  C1032630   9.180   4.270   5.042 -0.0641 -0.0197  0.7794
 3265DECAN   C132631   2.411   9.105   8.904 -0.1112 -1.0737 -0.6878
 3265DECAN   C232632   2.409   9.253   8.859  0.1288 -0.8263  0.0916
 3265DECAN   C332633   2.289   9.266   8.763  0.3124  0.4454  0.0165
 3265DECAN   C432634   2.298   9.389   8.671  0.0160  0.3412 -0.1526
 3265DECAN   C532635   2.168   9.426   8.596 -0.0301  0.0462 -0.2215
 3265DECAN   C632636   2.174   9.541   8.494  0.3966  0.2900  0.0709
 3265DECAN   C732637   2.293   9.525   8.398  0.0053  0.4078 -0.4443
 3265DECAN   C832638   2.430   9.533   8.469 -0.1789  0.2173 -0.0678
 3265DECAN   C932639   2.472   9.660   8.545  0.0391  0.1079 -0.0065
 3265DECAN  C1032640   2.516   9.783   8.464  0.2826  0.3637  0.5021
 3266DECAN   C132641   2.707   1.478   6.783  0.1781  0.4113 -0.1073
 3266DECAN   C232642   2.706   1.478   6.937 -0.7203 -0.3211 -0.1038
 3266DECAN   C332643   2.581   1.419   7.004 -0.7762  0.1230  0.1833
 3266DECAN   C432644   2.543   1.277   6.957 -0.5691  0.2175 -0.2688
 3266DECAN   C532645   2.411   1.226   7.017 -0.4070  0.0797 -0.0302
 3266DECAN   C632646   2.283   1.300   6.974 -0.3670 -0.1168 -0.4922
 3266DECAN   C732647   2.159   1.281   7.063  0.0586  0.1067  0.1601
 3266DECAN   C832648   2.174   1.329   7.209  0.5988  0.2268  0.0663
 3266DECAN   C932649   2.181   1.482   7.228  0.3480  0.1945  0.4258
 3266DECAN  C1032650   2.185   1.523   7.376 -0.0103 -0.2878  0.5737
 3267DECAN   C132651   6.193   9.782   6.152 -0.1593 -0.3730 -0.4233
 3267DECAN   C232652   6.198   9.629   6.168  0.1649 -0.3059  0.1540
 3267DECAN   C332653   6.092   9.565   6.078  0.5122 -0.4208 -0.1733
 3267DECAN   C432654   6.103   9.413   6.055  0.1117 -0.5027  0.1783
 3267DECAN   C532655   6.021   9.351   5.941  0.0656 -0.0488 -0.0347
 3267DECAN   C632656   5.995   9.200   5.955 -0.0681 -0.0555 -0.3286
 3267DECAN   C732657   5.933   9.128   5.834 -0.7919 -0.0915  0.0556
 3267DECAN   C832658   5.905   8.978   5.859  0.2324 -0.3417 -0.2191
 3267DECAN   C932659   5.905   8.895   5.730 -0.1758  0.0646 -0.4833
 3267DECAN  C1032660   5.797   8.940   5.629 -0.2955 -0.3273 -0.5294
 3268DECAN   C132661   1.226   4.422   9.057  0.3908 -0.0032  0.4518
 3268DECAN   C232662   1.238   4.565   9.001  0.2948 -0.2838 -0.3037
 3268DECAN   C332663   1.345   4.656   9.063 -0.1733  0.1727 -0.1563
 3268DECAN   C432664   1.328   4.699   9.210  0.6704  0.0112 -0.0091
 3268DECAN   C532665   1.456   4.763   9.267  0.4079  0.5675 -0.0406
 3268DECAN   C632666   1.448   4.820   9.410  0.0947 -0.1536  0.2351
 3268DECAN   C732667   1.586   4.871   9.455  0.0957 -0.1682  0.2492
 3268DECAN   C832668   1.642   5.000   9.393  0.3186 -0.1153  0.5579
 3268DECAN   C932669   1.586   5.134   9.446  0.1148  0.1979 -0.4344
 3268DECAN  C1032670   1.672   5.247   9.387  0.7675  0.0152  0.1593
 3269DECAN   C132671   3.267   8.131   5.385 -0.3500  0.1620  0.3770
 3269DECAN   C232672   3.374   8.166   5.280 -0.3009  0.1733  0.4309
 3269DECAN   C332673   3.336   8.125   5.137 -0.1869  0.0925  0.4235
 3269DECAN   C432674   3.208   8.192   5.082  0.1827  0.4672  0.0111
 3269DECAN   C532675   3.092   8.155   5.176  0.4869  0.0148  0.2134
 3269DECAN   C632676   2.957   8.168   5.103  0.3631  0.1484  0.4658
 3269DECAN   C732677   2.826   8.171   5.184  0.0177  0.5111 -0.1040
 3269DECAN   C832678   2.695   8.194   5.106  0.0742 -0.1782 -0.4070
 3269DECAN   C932679   2.656   8.082   5.008 -0.2713 -0.5638  0.1591
 3269DECAN  C1032680   2.624   7.948   5.076 -0.5131 -0.4124  0.3450
 3270DECAN   C132681   6.482   4.093  11.980 -0.3182 -0.2751 -0.2101
 3270DECAN   C232682   6.376   4.204  11.974 -0.1537 -0.0964  0.1908
 3270DECAN   C332683   6.393   4.327  12.065  0.3787 -0.3995  0.5020
 3270DECAN   C432684   6.381   4.283  12.212 -0.7279 -0.2622  0.4540
 3270DECAN   C532685   6.381   4.401  12.311  0.4443 -0.0559  0.2239
 3270DECAN   C632686   6.519   4.465  12.330  0.3519  0.2662 -0.1948
 3270DECAN   C732687   6.529   4.562  12.450 -0.4474  0.4773 -0.2935
 3270DECAN   C832688   6.470   4.698  12.410 -0.4516  0.5232 -0.1337
 3270DECAN   C932689   6.500   4.805  12.517  0.0252 -0.1554  0.4188
 3270DECAN  C1032690   6.477   4.942  12.450  0.4533 -0.2755  0.0235
 3271DECAN   C132691   6.218   5.971   5.842  0.3161 -0.4407 -0.8967
 3271DECAN   C232692   6.361   6.023   5.821  0.2607  0.0303 -0.1413
 3271DECAN   C332693   6.463   5.916   5.865  0.1071  0.1760  0.5801
 3271DECAN   C432694   6.606   5.947   5.817 -0.0716 -0.0198 -0.0881
 3271DECAN   C532695   6.669   6.071   5.882  0.0586  0.0000 -0.2507
 3271DECAN   C632696   6.819   6.079   5.852  0.0978  0.4533  0.0573
 3271DECAN   C732697   6.871   6.220   5.887  0.5273  0.3356 -0.0986
 3271DECAN   C832698   6.860   6.260   6.035 -0.0314 -0.1607 -0.0042
 3271DECAN   C932699   6.880   6.410   6.062  0.0651 -0.1072 -0.3688
 3271DECAN  C1032700   7.028   6.452   6.058  0.0915 -0.0614  0.7341
 3272DECAN   C132701   7.387   7.203  10.574 -0.8020 -0.2175 -0.9989
 3272DECAN   C232702   7.490   7.105  10.514  0.7309  0.7014  0.0778
 3272DECAN   C332703   7.606   7.065  10.607  0.5656 -0.0522 -0.0293
 3272DECAN   C432704   7.712   6.983  10.531 -0.5725 -1.2731 -0.3274
 3272DECAN   C532705   7.829   6.943  10.623 -0.2050 -0.5451 -0.4699
 3272DECAN   C632706   7.793   6.903  10.767  0.1109 -0.0513 -0.2549
 3272DECAN   C732707   7.902   6.852  10.864  0.1634  0.6959  0.0876
 3272DECAN   C832708   7.844   6.803  10.998  0.5643  0.7878  0.2962
 3272DECAN   C932709   7.950   6.764  11.102  0.0227  0.1130  0.5986
 3272DECAN  C1032710   7.894   6.709  11.235 -0.6244  0.3015  0.4075
 3273DECAN   C132711   2.317   3.315   7.254  0.1271 -0.1482  0.6898
 3273DECAN   C232712   2.404   3.193   7.290  0.2797 -0.3928 -0.4782
 3273DECAN   C332713   2.322   3.063   7.273 -0.3217 -0.0779 -0.0442
 3273DECAN   C432714   2.300   3.019   7.127 -0.2407  0.0148 -0.0845
 3273DECAN   C532715   2.189   2.915   7.108 -0.3819  0.1747 -0.1366
 3273DECAN   C632716   2.207   2.840   6.974 -0.2215  0.0999 -0.0740
 3273DECAN   C732717   2.114   2.722   6.942  0.0618 -0.0702 -0.2640
 3273DECAN   C832718   1.966   2.755   6.920 -0.0519 -0.1441  0.3795
 3273DECAN   C932719   1.866   2.643   6.884  0.1903 -0.1279 -0.3555
 3273DECAN  C1032720   1.724   2.702   6.874  0.0941 -0.2158  0.4202
 3274DECAN   C132721   7.155   0.248  12.997  0.1799  0.3503  0.1216
 3274DECAN   C232722   7.046   0.152  12.947  0.5246  0.2665 -0.4848
 3274DECAN   C332723   7.091   0.046  12.844  0.4954 -0.1980 -0.0236
 3274DECAN   C432724   7.112   0.113  12.707 -0.2235  0.1571  0.0340
 3274DECAN   C532725   7.196   0.024  12.613  0.5275  0.3250  0.5361
 3274DECAN   C632726   7.231   0.100  12.484  0.7350 -0.1691  0.2977
 3274DECAN   C732727   7.335   0.007  12.421  0.1826 -0.3842 -0.3131
 3274DECAN   C832728   7.371   0.048  12.277 -0.7106  0.1966 -0.3749
 3274DECAN   C932729   7.435  11.180  12.193 -0.0599  0.1465  0.1780
 3274DECAN  C1032730   7.351  11.055  12.161 -0.2538  0.2890  0.1280
 3275DECAN   C132731  10.579   7.886   7.568  0.0170 -0.1694  0.3221
 3275DECAN   C232732  10.521   7.767   7.490  0.9827 -0.3608 -0.1300
 3275DECAN   C332733  10.400   7.710   7.566  0.4666  0.3386 -0.4224
 3275DECAN   C432734  10.269   7.792   7.564  0.2937  0.1115  0.7734
 3275DECAN   C532735  10.144   7.705   7.581 -0.1484  0.5847 -0.0340
 3275DECAN   C632736  10.033   7.762   7.672 -0.1055  0.0460  0.3572
 3275DECAN   C732737   9.900   7.684   7.666 -0.4007  0.5429  0.4595
 3275DECAN   C832738   9.835   7.659   7.803 -0.1278 -0.0631  0.4789
 3275DECAN   C932739   9.814   7.775   7.902  0.0248  0.1551  0.2565
 3275DECAN  C1032740   9.779   7.743   8.049  0.0170 -0.5024  0.1151
 3276DECAN   C132741   3.511  10.751  10.129  0.0552 -0.1762  0.0894
 3276DECAN   C232742   3.460  10.624  10.059  0.5110 -0.2434 -0.1296
 3276DECAN   C332743   3.493  10.498  10.142 -0.2401 -0.1796  0.2760
 3276DECAN   C432744   3.427  10.379  10.069  0.2787 -0.1720 -0.2078
 3276DECAN   C532745   3.426  10.388   9.916 -0.4551 -0.0711 -0.2013
 3276DECAN   C632746   3.401  10.246   9.862 -0.7197 -0.1930  0.2420
 3276DECAN   C732747   3.450  10.230   9.717  0.1513  0.1455  0.4896
 3276DECAN   C832748   3.356  10.304   9.620  0.7534  0.1620 -0.0802
 3276DECAN   C932749   3.382  10.294   9.468 -0.7429 -0.1052 -0.3320
 3276DECAN  C1032750   3.373  10.149   9.417 -0.6352 -0.1317 -0.2761
 3277DECAN   C132751   3.526   4.423   6.741  0.1045  0.2306 -0.1366
 3277DECAN   C232752   3.620   4.360   6.637  0.3712  0.3649  0.0208
 3277DECAN   C332753   3.708   4.240   6.675  0.2966  0.1770 -0.3917
 3277DECAN   C432754   3.793   4.171   6.567  0.1663 -0.3992 -0.1307
 3277DECAN   C532755   3.909   4.088   6.626  0.6132  0.3689  0.0848
 3277DECAN   C632756   4.000   4.030   6.516  0.1709  0.1938 -0.1930
 3277DECAN   C732757   4.124   4.118   6.491  0.4497 -0.0982  0.1558
 3277DECAN   C832758   4.206   4.073   6.369  0.3981  0.0067  0.0826
 3277DECAN   C932759   4.342   4.145   6.355  0.4809 -0.0850  0.4203
 3277DECAN  C1032760   4.419   4.093   6.233  0.3539  0.7511 -0.0230
 3278DECAN   C132761   4.564   1.642  12.198  0.0207 -0.2128  0.3467
 3278DECAN   C232762   4.458   1.542  12.249 -0.0972 -0.2443  0.0492
 3278DECAN   C332763   4.508   1.397  12.250  0.0552 -0.1954 -0.4998
 3278DECAN   C432764   4.400   1.290  12.273 -0.3943  0.3342 -0.1314
 3278DECAN   C532765   4.451   1.147  12.250 -1.0928  0.0275  0.1826
 3278DECAN   C632766   4.359   1.027  12.221 -0.4045 -0.4682  0.0151
 3278DECAN   C732767   4.294   1.023  12.081 -0.3360 -0.3963 -0.0199
 3278DECAN   C832768   4.163   0.943  12.073 -0.2734 -0.5508  0.4425
 3278DECAN   C932769   4.053   0.980  12.174 -0.2271  0.1165  0.2521
 3278DECAN  C1032770   3.920   0.936  12.113 -0.3217  0.3250  0.3043
 3279DECAN   C132771  10.047   1.843  10.197  0.1205  0.0466  0.0096
 3279DECAN   C232772  10.201   1.842  10.202  0.1079 -0.3472  0.4114
 3279DECAN   C332773  10.267   1.742  10.299  0.1989 -0.4296  0.2641
 3279DECAN   C432774  10.418   1.760  10.325  0.2820 -0.0907 -0.4426
 3279DECAN   C532775  10.470   1.669  10.438 -0.3907  0.7838  0.5938
 3279DECAN   C632776  10.623   1.676  10.450 -0.3066  0.5734 -0.2856
 3279DECAN   C732777  10.680   1.815  10.485 -0.4804  0.5290  0.1764
 3279DECAN   C832778  10.685   1.909  10.363 -0.1802  0.0162 -0.2105
 3279DECAN   C932779  10.766   2.039  10.377 -0.2920  0.0119  0.5252
 3279DECAN  C1032780  10.697   2.145  10.463 -0.4149  0.6869 -0.3926
 3280DECAN   C132781   4.524  10.396  13.622 -0.6215 -0.0988  0.1149
 3280DECAN   C232782   4.513  10.243  13.612  0.0978 -0.1200 -0.4305
 3280DECAN   C332783   4.457  10.163  13.731 -0.1134 -0.0847 -0.5046
 3280DECAN   C432784   4.384  10.031  13.700  0.2259 -0.3406 -0.2254
 3280DECAN   C532785   4.258  10.039  13.613 -0.0160  0.0870  0.1582
 3280DECAN   C632786   4.192   9.901  13.603  0.2771 -0.0427  0.0111
 3280DECAN   C732787   4.150   9.845  13.740  0.1741 -0.8207 -0.3338
 3280DECAN   C832788   4.271   9.768  13.795  0.2053 -0.0999  0.6294
 3280DECAN   C932789   4.255   9.726  13.942 -0.0604 -0.6465  0.4456
 3280DECAN  C1032790   4.362   9.633  14.004  0.2023 -0.4522  0.2843
 3281DECAN   C132791  10.383   9.914   7.225 -0.4679  0.2635  0.6716
 3281DECAN   C232792  10.304   9.882   7.097  0.0249  0.4060  0.3278
 3281DECAN   C332793  10.167   9.951   7.081 -0.0734  0.0797 -0.2481
 3281DECAN   C432794  10.177  10.103   7.058 -0.5063  0.1537  0.0527
 3281DECAN   C532795  10.039  10.172   7.059 -0.4555  0.2501  0.5517
 3281DECAN   C632796  10.055  10.306   6.983 -0.1165 -0.2955 -0.3569
 3281DECAN   C732797   9.916  10.363   6.950 -0.0256  0.2978  0.2685
 3281DECAN   C832798   9.946  10.499   6.885  0.5066  0.1063  0.1129
 3281DECAN   C932799  10.017  10.487   6.749 -0.1707 -0.7325 -0.1710
 3281DECAN  C1032800  10.051  10.626   6.691  0.0409 -0.5256  0.4461
 3282DECAN   C132801   7.092   9.253   5.930  0.0433  0.2157 -0.4513
 3282DECAN   C232802   7.029   9.133   6.005 -0.1538  0.6540  0.0953
 3282DECAN   C332803   7.114   9.101   6.129 -0.1285 -0.3519 -0.1749
 3282DECAN   C432804   7.067   8.972   6.199 -0.2244 -0.1696  0.0976
 3282DECAN   C532805   7.137   8.953   6.334 -0.4254  0.3766  0.2802
 3282DECAN   C632806   7.052   8.861   6.423 -0.0454 -0.2630 -0.0138
 3282DECAN   C732807   6.908   8.910   6.447  0.1036  0.0435  0.2639
 3282DECAN   C832808   6.900   9.044   6.523 -0.1920  0.3138 -0.2435
 3282DECAN   C932809   6.754   9.091   6.541 -0.2448 -0.0542  0.2889
 3282DECAN  C1032810   6.733   9.223   6.618  0.2462 -0.2045  0.6908
 3283DECAN   C132811   3.118   8.734   8.900 -0.7688 -0.3147  0.2315
 3283DECAN   C232812   3.162   8.587   8.885 -0.2699 -0.1629  0.1805
 3283DECAN   C332813   3.298   8.552   8.822 -0.5208  0.1188 -0.5209
 3283DECAN   C432814   3.321   8.401   8.804  0.0518  0.1504 -0.0912
 3283DECAN   C532815   3.450   8.373   8.725 -0.1246 -0.0578 -0.3088
 3283DECAN   C632816   3.493   8.226   8.705  0.0667  0.0613 -0.7865
 3283DECAN   C732817   3.633   8.216   8.642  0.1738 -0.9956 -0.4109
 3283DECAN   C832818   3.642   8.272   8.499  0.3417 -0.2226 -0.1032
 3283DECAN   C932819   3.585   8.414   8.476  0.3861 -0.1240  0.3936
 3283DECAN  C1032820   3.587   8.455   8.328 -0.0438  0.2762  0.4973
 3284DECAN   C132821   1.113   2.031  12.380  0.5188 -0.1795 -0.1998
 3284DECAN   C232822   1.048   1.961  12.258  0.7039 -0.0531 -0.3713
 3284DECAN   C332823   1.148   1.863  12.194  1.1082  0.0136  0.1484
 3284DECAN   C432824   1.111   1.789  12.065  0.2600 -0.0986  0.4516
 3284DECAN   C532825   1.117   1.888  11.947  0.4542 -0.5994  0.0316
 3284DECAN   C632826   1.106   1.822  11.809 -0.3885 -0.0430 -0.1708
 3284DECAN   C732827   0.989   1.725  11.783 -0.0672 -0.4124 -0.2474
 3284DECAN   C832828   0.989   1.652  11.647  0.4601 -0.2896 -0.3175
 3284DECAN   C932829   0.886   1.537  11.652  0.3176 -0.1543 -0.1490
 3284DECAN  C1032830   0.879   1.448  11.527 -0.3158  0.1277 -0.3215
 3285DECAN   C132831   4.837   1.148  13.802  0.0228 -0.2378  0.2377
 3285DECAN   C232832   4.900   1.141  13.662 -1.4602 -0.1583 -0.4523
 3285DECAN   C332833   4.866   1.015  13.580  0.4775 -0.5438 -0.7076
 3285DECAN   C432834   4.737   1.024  13.497  0.2358  0.0260 -0.2743
 3285DECAN   C532835   4.684   0.880  13.484  0.4564 -0.0764 -0.0478
 3285DECAN   C632836   4.550   0.880  13.409  0.3428  0.4808  0.1517
 3285DECAN   C732837   4.563   0.896  13.257  0.1360  0.4513  0.1302
 3285DECAN   C832838   4.432   0.905  13.177 -0.0526  0.5887  0.4574
 3285DECAN   C932839   4.458   0.948  13.031  0.0274  0.7722  0.5247
 3285DECAN  C1032840   4.321   0.982  12.970  0.1326 -0.3626 -0.3844
 3286DECAN   C132841   4.342   0.689   4.415 -0.0644  0.4487 -0.4464
 3286DECAN   C232842   4.462   0.593   4.401 -0.2949  0.2124 -0.8436
 3286DECAN   C332843   4.602   0.657   4.400  0.0110 -0.4152 -0.0885
 3286DECAN   C432844   4.627   0.741   4.526 -0.2099 -0.2647 -0.1442
 3286DECAN   C532845   4.551   0.874   4.543  0.1535  0.0264 -0.7727
 3286DECAN   C632846   4.605   0.937   4.673 -0.4028  0.0202 -0.5342
 3286DECAN   C732847   4.539   1.062   4.734 -0.0899 -0.2476  0.3729
 3286DECAN   C832848   4.585   1.112   4.872  0.2923  0.1255  0.1117
 3286DECAN   C932849   4.547   1.027   4.994  0.0370 -0.0140 -0.0641
 3286DECAN  C1032850   4.625   1.068   5.120  0.3520  0.9088 -0.5485
 3287DECAN   C132851   3.387   5.788   9.270 -0.5729  0.0322  0.2196
 3287DECAN   C232852   3.521   5.716   9.291 -0.2083  0.3519 -0.9327
 3287DECAN   C332853   3.541   5.582   9.217 -0.0805  0.1943 -0.6143
 3287DECAN   C432854   3.688   5.539   9.228 -0.1532  0.0379 -0.2145
 3287DECAN   C532855   3.758   5.562   9.363 -0.1914 -0.0718 -0.1750
 3287DECAN   C632856   3.912   5.564   9.357 -0.2055 -0.1466 -0.5616
 3287DECAN   C732857   3.977   5.610   9.488  0.0147 -0.1760 -0.6596
 3287DECAN   C832858   3.949   5.759   9.519 -0.0566 -0.3853  0.3400
 3287DECAN   C932859   4.034   5.840   9.618 -0.1112  0.1754 -0.0661
 3287DECAN  C1032860   4.006   5.992   9.626 -0.1261  0.1788 -0.1818
 3288DECAN   C132861   9.255   5.817  11.706  0.5443  0.2089  0.1484
 3288DECAN   C232862   9.193   5.948  11.655 -0.1753 -0.1154  0.1747
 3288DECAN   C332863   9.106   6.014  11.763  0.2537 -0.0205  0.4666
 3288DECAN   C432864   9.185   6.044  11.892  0.1615  0.7442  0.3475
 3288DECAN   C532865   9.100   6.090  12.011 -0.3605  0.2063  0.1855
 3288DECAN   C632866   9.171   6.118  12.145 -0.2702  0.0408  0.1717
 3288DECAN   C732867   9.266   6.239  12.130  0.1333 -0.2974 -0.0445
 3288DECAN   C832868   9.196   6.371  12.090  0.3897 -0.2532 -0.3531
 3288DECAN   C932869   9.300   6.485  12.094  0.1953 -0.0943  0.2863
 3288DECAN  C1032870   9.284   6.573  11.968  0.2727  0.1939  0.4777
 3289DECAN   C132871   3.112   6.012   9.944 -0.3270 -0.5037  0.0545
 3289DECAN   C232872   2.970   5.964   9.978 -0.4244  0.1360  0.5824
 3289DECAN   C332873   2.870   6.070   9.927  0.0893  0.5256  0.3798
 3289DECAN   C432874   2.914   6.125   9.790 -0.3577  0.8144  0.3535
 3289DECAN   C532875   2.804   6.213   9.726 -0.3305  0.6798  0.1204
 3289DECAN   C632876   2.784   6.350   9.793 -0.1029  0.5361  0.4862
 3289DECAN   C732877   2.677   6.436   9.724 -0.3727  0.0102  0.2478
 3289DECAN   C832878   2.535   6.379   9.743 -0.0965 -0.9199 -0.3737
 3289DECAN   C932879   2.405   6.448   9.695  0.1445 -0.1811  0.0191
 3289DECAN  C1032880   2.405   6.434   9.542 -0.6703  0.1265 -0.0137
 3290DECAN   C132881   3.768  11.239   8.735 -0.3283  0.5595 -0.6116
 3290DECAN   C232882   3.896  11.155   8.725 -0.5852  0.1030 -0.1417
 3290DECAN   C332883   3.931  11.078   8.853  0.2253  0.5660 -0.0777
 3290DECAN   C432884   4.048  10.977   8.843 -0.9580 -0.8614  0.1860
 3290DECAN   C532885   4.075  10.923   8.984 -0.0967 -0.0715  0.3306
 3290DECAN   C632886   4.190  10.821   8.990  0.4444  0.4832 -0.4216
 3290DECAN   C732887   4.150  10.686   8.927 -0.1182  0.6302 -0.3824
 3290DECAN   C832888   4.261  10.585   8.892 -0.8633 -0.4423  0.3047
 3290DECAN   C932889   4.197  10.489   8.789 -0.0915 -0.1957 -0.4075
 3290DECAN  C1032890   4.105  10.406   8.880 -0.4179  0.3122 -0.2728
 3291DECAN   C132891   5.899   3.896   8.174  0.3770 -0.2627 -0.1996
 3291DECAN   C232892   5.916   3.863   8.324 -0.0564  0.2538 -0.0351
 3291DECAN   C332893   5.940   3.978   8.423 -0.7779  0.5513 -0.1929
 3291DECAN   C432894   6.073   4.051   8.394  0.1910 -0.7951  0.6922
 3291DECAN   C532895   6.100   4.178   8.476  0.7192 -0.1990 -0.3791
 3291DECAN   C632896   6.137   4.146   8.622 -0.4141  0.2715  0.0230
 3291DECAN   C732897   6.158   4.256   8.728 -0.1920  0.1391  0.1146
 3291DECAN   C832898   6.294   4.328   8.731  0.2975 -0.7580  0.0345
 3291DECAN   C932899   6.299   4.439   8.838 -0.4990 -0.4037 -0.2836
 3291DECAN  C1032900   6.281   4.389   8.982  0.7213 -0.3761 -0.1079
 3292DECAN   C132901   6.214   4.830   8.915 -0.3110  1.1896 -0.0131
 3292DECAN   C232902   6.311   4.932   8.853  1.0542  0.0845  0.2486
 3292DECAN   C332903   6.233   5.023   8.757  0.7810 -0.0697  0.3238
 3292DECAN   C432904   6.180   4.950   8.632 -0.6299 -0.0060  0.8641
 3292DECAN   C532905   6.085   5.040   8.550  0.4679  0.0686 -0.3550
 3292DECAN   C632906   6.143   5.177   8.508  0.1158  0.2345 -0.3062
 3292DECAN   C732907   6.058   5.230   8.392 -0.0077  0.1283 -0.2644
 3292DECAN   C832908   6.090   5.370   8.335 -0.2168  0.2470 -0.0938
 3292DECAN   C932909   5.985   5.412   8.231  0.1410  0.5399 -0.3379
 3292DECAN  C1032910   5.849   5.449   8.294 -0.1861 -0.5586 -0.3828
 3293DECAN   C132911   8.256  10.388   7.640 -0.1875  0.1584 -0.4300
 3293DECAN   C232912   8.116  10.449   7.652  0.0665  0.6234  0.2805
 3293DECAN   C332913   8.042  10.485   7.521 -0.4996  0.1550  0.4651
 3293DECAN   C432914   7.922  10.573   7.558 -0.6572  0.1008  0.0916
 3293DECAN   C532915   7.960  10.700   7.637  0.4834 -0.2154  0.0700
 3293DECAN   C632916   8.054  10.794   7.559  0.1312  0.1765  0.1144
 3293DECAN   C732917   8.093  10.926   7.627 -0.9161  0.5993 -0.0807
 3293DECAN   C832918   8.193  11.014   7.550  0.0108 -0.0875  0.3212
 3293DECAN   C932919   8.223  11.152   7.610  0.3656 -0.0223  0.0014
 3293DECAN  C1032920   8.247  11.146   7.762  0.0117 -0.5305  0.0392
 3294DECAN   C132921   3.610   9.985   6.773  0.2217  0.7618  0.3582
 3294DECAN   C232922   3.605  10.130   6.722 -0.5789  0.2682 -1.0011
 3294DECAN   C332923   3.467  10.192   6.750 -0.4812 -0.0537  0.2534
 3294DECAN   C432924   3.474  10.346   6.736  0.0395 -0.1076 -0.1177
 3294DECAN   C532925   3.498  10.400   6.594 -0.4906 -0.2131 -0.2489
 3294DECAN   C632926   3.537  10.547   6.613  0.2048 -0.3671 -0.4609
 3294DECAN   C732927   3.665  10.576   6.695 -0.0796 -0.1963 -0.0764
 3294DECAN   C832928   3.710  10.723   6.686 -0.0781 -0.1509  0.6072
 3294DECAN   C932929   3.844  10.742   6.760 -0.0001  0.2720  0.3613
 3294DECAN  C1032930   3.842  10.705   6.910  0.0837  0.2519  0.3574
 3295DECAN   C132931   3.708   5.136  15.105  0.1622 -0.3966  0.0485
 3295DECAN   C232932   3.657   5.131  14.959 -0.3312 -0.1950  0.2123
 3295DECAN   C332933   3.652   4.990  14.897  0.4906  0.0211 -0.3602
 3295DECAN   C432934   3.577   4.982  14.763 -0.0177  0.0278 -0.0775
 3295DECAN   C532935   3.549   4.836  14.723 -0.3571  0.0438  0.0991
 3295DECAN   C632936   3.666   4.737  14.720  0.0591  0.5432 -0.2199
 3295DECAN   C732937   3.735   4.729  14.858  0.4346  0.0641 -0.4296
 3295DECAN   C832938   3.678   4.632  14.963  0.4877  0.4025 -0.0851
 3295DECAN   C932939   3.762   4.604  15.089 -0.1753 -0.1062  0.2519
 3295DECAN  C1032940   3.803   4.739  15.152 -0.2898  0.0135  0.0709
 3296DECAN   C132941   6.664   7.341   5.496 -0.7207 -0.1425 -0.8214
 3296DECAN   C232942   6.773   7.449   5.492 -0.2614 -0.5391  0.5271
 3296DECAN   C332943   6.814   7.507   5.355  0.5287 -0.1202  0.9309
 3296DECAN   C432944   6.894   7.417   5.259 -0.5523  0.2926 -0.3970
 3296DECAN   C532945   7.031   7.396   5.328 -0.4463  0.3335 -0.5962
 3296DECAN   C632946   7.139   7.504   5.312  0.1785 -0.2147 -0.1160
 3296DECAN   C732947   7.284   7.479   5.359  0.0153 -0.0457  0.4872
 3296DECAN   C832948   7.372   7.606   5.356  0.0672 -0.0932 -0.1510
 3296DECAN   C932949   7.522   7.589   5.383  0.1402  0.7272 -0.0089
 3296DECAN  C1032950   7.556   7.515   5.513  0.8792  0.4645 -0.3450
 3297DECAN   C132951  10.112   8.124  11.237  0.0157 -0.1756 -0.1639
 3297DECAN   C232952  10.082   7.977  11.205 -0.0673 -0.1942 -0.0021
 3297DECAN   C332953  10.206   7.917  11.136 -0.1462  0.1381 -0.4410
 3297DECAN   C432954  10.188   7.764  11.128  0.5255 -0.0044  0.6166
 3297DECAN   C532955  10.056   7.720  11.064  0.1676  0.5468  0.9683
 3297DECAN   C632956  10.033   7.574  11.107  0.3441  0.2147 -0.0406
 3297DECAN   C732957  10.013   7.570  11.259 -0.1848  0.5220 -0.0999
 3297DECAN   C832958   9.963   7.428  11.291  0.5747  0.2358 -0.1610
 3297DECAN   C932959   9.955   7.391  11.440 -0.4590  0.4187 -0.1640
 3297DECAN  C1032960   9.882   7.260  11.475  0.1903  0.0908 -0.0122
 3298DECAN   C132961   2.531   1.398   6.296 -0.1677  0.7470  0.0006
 3298DECAN   C232962   2.438   1.330   6.398  0.3653 -0.1914 -0.1266
 3298DECAN   C332963   2.346   1.216   6.353  0.5991 -0.7168  0.6982
 3298DECAN   C432964   2.212   1.225   6.428  0.0024 -0.3614 -0.3855
 3298DECAN   C532965   2.111   1.119   6.380 -0.5021 -0.2096  0.3255
 3298DECAN   C632966   1.970   1.132   6.441 -0.5920 -0.7210  0.2359
 3298DECAN   C732967   1.949   1.073   6.581 -0.5255 -0.4319  0.3682
 3298DECAN   C832968   2.016   0.937   6.604  0.3171  0.0024  0.5503
 3298DECAN   C932969   1.997   0.872   6.742  0.0380 -0.3409  0.3532
 3298DECAN  C1032970   2.092   0.925   6.851 -0.3665  0.0895  0.4998
 3299DECAN   C132971   2.814   4.692  10.360 -0.0650 -0.5637 -0.0118
 3299DECAN   C232972   2.890   4.653  10.488 -0.2078  0.1183  0.2848
 3299DECAN   C332973   2.975   4.767  10.546  0.0350  0.2200 -0.2726
 3299DECAN   C432974   3.056   4.707  10.662  0.5762  0.3313 -0.5881
 3299DECAN   C532975   3.159   4.812  10.709 -0.1568  0.8647 -0.1538
 3299DECAN   C632976   3.257   4.743  10.806 -0.6666  0.1348 -0.1440
 3299DECAN   C732977   3.197   4.689  10.937  0.1509  0.5948  0.4327
 3299DECAN   C832978   3.303   4.628  11.031 -0.2524  0.2413  0.6626
 3299DECAN   C932979   3.361   4.495  10.978 -0.6804  0.3444 -0.0865
 3299DECAN  C1032980   3.443   4.433  11.092 -0.3699  1.1298  0.1274
 3300DECAN   C132981   9.966   8.628   8.942  0.1509  0.0638  0.0818
 3300DECAN   C232982  10.118   8.650   8.937  0.1652 -0.0790 -0.1206
 3300DECAN   C332983  10.190   8.696   9.066 -0.0330 -0.2771  0.0635
 3300DECAN   C432984  10.342   8.712   9.054 -0.0747  0.0470 -0.0412
 3300DECAN   C532985  10.401   8.784   9.177  0.2696 -0.4305  0.0767
 3300DECAN   C632986  10.553   8.766   9.194  0.3170  0.0659  0.1853
 3300DECAN   C732987  10.618   8.847   9.308  0.3263  0.2005  0.0842
 3300DECAN   C832988  10.768   8.875   9.287  0.4501 -0.3700  0.1821
 3300DECAN   C932989  10.857   8.750   9.277  0.7260 -0.1537 -0.1010
 3300DECAN  C1032990  11.005   8.773   9.241  0.7363 -0.1176 -0.0361
 3301DECAN   C132991   2.866   2.846   8.262 -0.2173  0.3972  0.3295
 3301DECAN   C232992   2.924   2.912   8.135 -0.0083 -0.4238 -0.0083
 3301DECAN   C332993   3.027   3.025   8.157 -0.0749 -0.4533  0.4581
 3301DECAN   C432994   3.169   2.980   8.198  0.1937  0.1774  0.2243
 3301DECAN   C532995   3.195   2.897   8.325 -0.1176 -0.5507 -0.1839
 3301DECAN   C632996   3.340   2.862   8.363 -0.0071  0.3038  0.2006
 3301DECAN   C732997   3.367   2.796   8.500  0.1257 -0.3340 -0.1308
 3301DECAN   C832998   3.513   2.777   8.545  0.0732  0.2799  0.3029
 3301DECAN   C932999   3.523   2.692   8.674  0.1129 -0.0314  0.0964
 3301DECAN  C1033000   3.660   2.658   8.735  0.1192 -0.0628  0.0651
 3302DECAN   C133001   9.258   5.653  12.296 -0.0707  0.4984  0.0013
 3302DECAN   C233002   9.329   5.718  12.175  0.0537  0.0927 -0.1427
 3302DECAN   C333003   9.436   5.812  12.232  0.1830  0.0305 -0.2811
 3302DECAN   C433004   9.550   5.855  12.138  0.4603 -0.6644 -0.2704
 3302DECAN   C533005   9.661   5.946  12.195  0.1916 -0.7744  0.4398
 3302DECAN   C633006   9.756   6.007  12.090 -0.3283  0.0110  0.4134
 3302DECAN   C733007   9.675   6.100  11.999  0.0152 -0.0784  0.0145
 3302DECAN   C833008   9.752   6.182  11.893  0.0988  0.1244  0.2325
 3302DECAN   C933009   9.826   6.082  11.802 -0.2206 -0.5485  0.6961
 3302DECAN  C1033010   9.739   5.986  11.719 -0.1467 -0.1267  0.1213
 3303DECAN   C133011   2.072   0.627   6.445  0.1210  0.4786 -0.3444
 3303DECAN   C233012   1.990   0.537   6.351 -0.4138  0.5253  0.0716
 3303DECAN   C333013   1.866   0.468   6.412 -0.2605  0.0895 -0.1027
 3303DECAN   C433014   1.893   0.402   6.549 -0.1547 -0.1573 -0.2418
 3303DECAN   C533015   1.920   0.505   6.661 -0.2722 -0.2361 -0.1409
 3303DECAN   C633016   2.023   0.452   6.762 -0.4435 -0.0918  0.1123
 3303DECAN   C733017   2.020   0.523   6.898 -0.0072 -0.2362  0.1989
 3303DECAN   C833018   2.148   0.487   6.977  0.1627  0.1671  0.1095
 3303DECAN   C933019   2.134   0.530   7.124  0.6352  1.0433 -0.0958
 3303DECAN  C1033020   2.269   0.532   7.198  0.4835 -0.1338  0.2227
 3304DECAN   C133021   5.904   9.536  12.983 -0.0290  0.5361 -0.0808
 3304DECAN   C233022   5.786   9.544  12.884  0.1997  0.2434 -0.3828
 3304DECAN   C333023   5.825   9.475  12.752  0.3870 -0.5731  0.0959
 3304DECAN   C433024   5.924   9.548  12.660 -0.6477  0.1631 -0.4439
 3304DECAN   C533025   5.951   9.462  12.534  0.1533 -0.0743 -0.1148
 3304DECAN   C633026   6.011   9.562  12.433 -0.1104  0.0631 -0.1358
 3304DECAN   C733027   5.921   9.682  12.399  0.1917  0.3832  0.1851
 3304DECAN   C833028   5.970   9.763  12.277  0.0346  0.4603  0.1721
 3304DECAN   C933029   5.862   9.860  12.225  0.0332  0.2652 -0.1938
 3304DECAN  C1033030   5.914   9.989  12.159 -0.1245  0.1493 -0.5433
 3305DECAN   C133031   4.524   0.790   7.984  0.3437  0.3806  0.9526
 3305DECAN   C233032   4.628   0.735   7.885 -0.2833 -0.4657  0.7506
 3305DECAN   C333033   4.575   0.626   7.790 -0.2984  0.6230 -0.5283
 3305DECAN   C433034   4.671   0.587   7.677 -0.4298 -0.0340 -0.4170
 3305DECAN   C533035   4.669   0.434   7.656 -0.3320 -0.1298  0.2583
 3305DECAN   C633036   4.557   0.392   7.559 -0.6050  0.4605  0.3134
 3305DECAN   C733037   4.544   0.240   7.539  0.3064  0.4027  0.1543
 3305DECAN   C833038   4.677   0.189   7.480  0.2161 -0.6647  0.8328
 3305DECAN   C933039   4.688   0.036   7.484  0.2476 -0.7014 -0.4082
 3305DECAN  C1033040   4.830  11.236   7.441  0.1799 -0.5199 -0.8278
 3306DECAN   C133041  10.611   2.970  11.408 -0.3050 -0.2968 -0.1935
 3306DECAN   C233042  10.550   3.094  11.341 -0.2314  0.0468  0.3689
 3306DECAN   C333043  10.477   3.054  11.211  0.2836  0.2363  0.0204
 3306DECAN   C433044  10.559   2.996  11.094  0.2018  0.0215  0.0696
 3306DECAN   C533045  10.463   2.922  10.999 -0.1407  0.5802 -0.0233
 3306DECAN   C633046  10.539   2.872  10.875  0.0662  0.5365  0.1198
 3306DECAN   C733047  10.436   2.821  10.773 -0.0732 -0.0128  0.5350
 3306DECAN   C833048  10.497   2.771  10.641 -0.2663  1.0327  0.0430
 3306DECAN   C933049  10.389   2.703  10.555  0.2566 -0.1594  0.3106
 3306DECAN  C1033050  10.449   2.609  10.449 -0.6055 -0.7394  0.3274
 3307DECAN   C133051   4.206   7.243   8.900 -0.1002 -0.8839 -0.0381
 3307DECAN   C233052   4.250   7.206   9.043  0.1966 -0.0968  0.0747
 3307DECAN   C333053   4.227   7.059   9.079 -0.0395 -0.1856 -0.4284
 3307DECAN   C433054   4.347   7.003   9.158  0.0609  0.1912 -0.3135
 3307DECAN   C533055   4.318   6.856   9.193  0.0868  0.1430 -0.4949
 3307DECAN   C633056   4.169   6.836   9.227  0.3638 -0.3705  0.4630
 3307DECAN   C733057   4.123   6.696   9.270 -0.6167 -0.2706 -0.2196
 3307DECAN   C833058   4.022   6.639   9.169 -0.3783  0.1471 -0.6977
 3307DECAN   C933059   3.916   6.735   9.111 -0.3941  0.3359 -0.3575
 3307DECAN  C1033060   3.822   6.666   9.011 -0.0620 -0.0986 -0.3743
 3308DECAN   C133061   3.602   7.644   8.381  0.0549  0.0789  0.4364
 3308DECAN   C233062   3.698   7.580   8.483  0.0808 -0.1910  0.2410
 3308DECAN   C333063   3.679   7.653   8.617  0.3085  0.6937 -0.2013
 3308DECAN   C433064   3.770   7.582   8.719 -0.0472 -0.0913 -0.4251
 3308DECAN   C533065   3.918   7.625   8.714 -0.2000  0.4537 -0.2661
 3308DECAN   C633066   3.996   7.524   8.629  0.0649  0.1649  0.3141
 3308DECAN   C733067   4.143   7.546   8.588 -0.0940  0.2976 -0.1877
 3308DECAN   C833068   4.166   7.687   8.529  0.0168  0.2435 -0.2729
 3308DECAN   C933069   4.304   7.714   8.466  0.2926 -0.3150  0.0782
 3308DECAN  C1033070   4.423   7.732   8.562  0.0259  0.2320  0.3067
 3309DECAN   C133071  10.230   4.101   5.713 -0.1276 -0.6545 -0.3609
 3309DECAN   C233072  10.285   4.194   5.603 -0.2049  0.3759  0.4675
 3309DECAN   C333073  10.327   4.332   5.660  0.1025  0.2722  0.4961
 3309DECAN   C433074  10.212   4.402   5.735 -0.6784  0.0368 -0.4521
 3309DECAN   C533075  10.220   4.556   5.741  0.2275 -0.0354  0.4904
 3309DECAN   C633076  10.130   4.609   5.854 -0.0169 -0.0012  0.2800
 3309DECAN   C733077  10.199   4.603   5.992 -0.6367 -0.2039  0.5837
 3309DECAN   C833078  10.213   4.457   6.039  0.1786 -0.0851  0.7158
 3309DECAN   C933079  10.081   4.398   6.092 -0.2256  0.1615 -0.0070
 3309DECAN  C1033080  10.115   4.272   6.173 -0.4502  0.0206 -0.1306
 3310DECAN   C133081   6.314   5.037   6.081  0.2234 -0.0005 -0.2009
 3310DECAN   C233082   6.410   4.959   6.173  0.0828  0.4085  0.2958
 3310DECAN   C333083   6.440   5.028   6.307  0.0029  0.1851  0.4283
 3310DECAN   C433084   6.529   4.940   6.398 -0.4703 -0.7068  0.0417
 3310DECAN   C533085   6.555   5.009   6.534 -0.1861 -0.0018 -0.3630
 3310DECAN   C633086   6.438   4.998   6.633  0.2730 -0.3541  0.1438
 3310DECAN   C733087   6.400   4.853   6.667  0.3267 -0.5624 -0.6779
 3310DECAN   C833088   6.525   4.788   6.731  0.4136 -0.1152 -0.3958
 3310DECAN   C933089   6.504   4.645   6.784 -0.0415  0.0060 -0.2395
 3310DECAN  C1033090   6.627   4.593   6.860 -0.2031 -0.1902 -0.1114
 3311DECAN   C133091   8.375   6.647  10.623  0.1565 -0.4349  0.5073
 3311DECAN   C233092   8.354   6.759  10.726 -0.0661 -0.2804  0.2966
 3311DECAN   C333093   8.478   6.850  10.736  0.1658 -0.5843  0.2151
 3311DECAN   C433094   8.505   6.932  10.608  0.0248 -0.3416  0.3419
 3311DECAN   C533095   8.477   6.856  10.478  0.1003  0.1907  0.0107
 3311DECAN   C633096   8.477   6.942  10.350 -0.2812 -0.0498 -0.1542
 3311DECAN   C733097   8.485   6.849  10.228 -0.4044  0.1071 -0.2820
 3311DECAN   C833098   8.519   6.908  10.089  0.0464  0.3840 -0.0578
 3311DECAN   C933099   8.416   7.005  10.028  0.6929  0.9854 -0.2080
 3311DECAN  C1033100   8.468   7.084   9.907  0.3035  0.1027 -0.9634
 3312DECAN   C133101   7.822   2.705   8.187 -0.9748 -0.2066  0.5212
 3312DECAN   C233102   7.913   2.666   8.304  0.0797  0.0835 -0.1865
 3312DECAN   C333103   7.835   2.685   8.436 -0.2113  0.2041 -0.3755
 3312DECAN   C433104   7.939   2.691   8.550 -0.3245 -1.1379 -0.1884
 3312DECAN   C533105   7.885   2.687   8.694  0.3971 -0.2376  0.1135
 3312DECAN   C633106   7.989   2.726   8.800  0.0994  0.3457  0.1986
 3312DECAN   C733107   7.946   2.734   8.948 -0.1365 -0.1961  0.1632
 3312DECAN   C833108   8.062   2.798   9.027  0.0325  0.0033 -0.2448
 3312DECAN   C933109   8.064   2.767   9.178  1.4529  0.1636 -0.2178
 3312DECAN  C1033110   8.139   2.879   9.253  0.2318  0.3587  0.7294
 3313DECAN   C133111   6.585   0.875   6.769 -0.1128 -0.2086  0.0209
 3313DECAN   C233112   6.452   0.953   6.765  0.1347  0.2097 -0.1000
 3313DECAN   C333113   6.412   1.002   6.906 -0.4422 -0.0670 -0.1682
 3313DECAN   C433114   6.363   0.886   6.995 -0.2830 -0.3179 -0.4077
 3313DECAN   C533115   6.490   0.800   7.010 -0.0968  0.0384  0.0828
 3313DECAN   C633116   6.472   0.667   7.086 -0.5614 -0.2765 -0.5734
 3313DECAN   C733117   6.590   0.572   7.057 -0.5091 -0.2338 -0.4970
 3313DECAN   C833118   6.575   0.424   7.093  0.6495 -0.2122  0.1282
 3313DECAN   C933119   6.468   0.361   7.002  0.4314  0.0684  0.1919
 3313DECAN  C1033120   6.450   0.438   6.870 -0.1700 -0.4520 -0.0329
 3314DECAN   C133121  10.072   5.497   4.761 -0.8262  0.2248  0.1013
 3314DECAN   C233122   9.933   5.432   4.758 -0.4375 -0.6065 -0.5466
 3314DECAN   C333123   9.939   5.279   4.772  0.3099 -0.5290 -0.0039
 3314DECAN   C433124   9.804   5.205   4.765 -0.1076  0.2587 -0.4516
 3314DECAN   C533125   9.829   5.054   4.788  0.2261  0.4202  0.2794
 3314DECAN   C633126   9.701   4.969   4.798  0.4591 -0.0091 -0.3058
 3314DECAN   C733127   9.715   4.816   4.798 -0.1934 -0.0732 -0.0963
 3314DECAN   C833128   9.583   4.739   4.809  0.1141 -0.6210 -0.2001
 3314DECAN   C933129   9.599   4.595   4.757  0.2923 -0.5629 -0.3053
 3314DECAN  C1033130   9.637   4.570   4.610  0.0921  0.4046 -0.5243
 3315DECAN   C133131   8.257   1.435   3.898  0.5270 -1.2727 -0.5535
 3315DECAN   C233132   8.186   1.327   3.982  0.2671 -0.1680  0.6835
 3315DECAN   C333133   8.067   1.376   4.067  0.1758  0.6391  0.1063
 3315DECAN   C433134   7.973   1.476   3.998 -0.2689  0.1916  0.0598
 3315DECAN   C533135   8.025   1.621   3.987 -0.3490  0.2004 -0.1956
 3315DECAN   C633136   7.914   1.720   3.947 -0.2471  0.3279 -0.1636
 3315DECAN   C733137   7.953   1.867   3.924 -0.3614  0.4179  0.1965
 3315DECAN   C833138   8.029   1.916   4.049 -0.5755  0.3143  0.3674
 3315DECAN   C933139   8.080   2.060   4.033  0.0716  0.0513 -0.0120
 3315DECAN  C1033140   7.957   2.152   4.040  0.0289  0.0188 -0.3192
 3316DECAN   C133141   8.878  10.085   9.366 -0.6467 -0.1813 -0.0371
 3316DECAN   C233142   8.910   9.967   9.460  0.2088  0.3947  0.4004
 3316DECAN   C333143   9.054   9.911   9.458 -0.0086 -0.1770  0.5423
 3316DECAN   C433144   9.075   9.790   9.550 -0.1451 -0.4881  0.1658
 3316DECAN   C533145   9.213   9.724   9.526 -0.1801 -0.2831 -0.6388
 3316DECAN   C633146   9.250   9.603   9.613 -0.7461  0.1952  0.2866
 3316DECAN   C733147   9.273   9.645   9.760  0.4446 -0.0290  0.1760
 3316DECAN   C833148   9.315   9.532   9.856  0.1202  0.2225  0.6140
 3316DECAN   C933149   9.293   9.577  10.002 -0.2892  0.2251  0.5558
 3316DECAN  C1033150   9.376   9.698  10.049 -0.0568  0.2985 -0.0321
 3317DECAN   C133151   4.243   0.909  12.615 -0.6572 -0.4180 -0.1808
 3317DECAN   C233152   4.114   0.872  12.539 -0.6135 -0.2357 -0.3443
 3317DECAN   C333153   3.994   0.939  12.608 -0.2977 -0.0494  0.0213
 3317DECAN   C433154   3.849   0.902  12.572 -0.4609  0.2149  0.3967
 3317DECAN   C533155   3.751   0.954  12.678 -1.1138 -0.1660 -0.0133
 3317DECAN   C633156   3.800   0.901  12.814 -0.2344  0.1303 -0.2103
 3317DECAN   C733157   3.727   0.773  12.860  0.3814 -0.0327  0.3334
 3317DECAN   C833158   3.757   0.741  13.007  0.4327  0.0845  0.3478
 3317DECAN   C933159   3.666   0.813  13.108  0.1337  0.1994 -0.0022
 3317DECAN  C1033160   3.519   0.768  13.098  0.0286  0.5959 -0.2443
 3318DECAN   C133161   3.522   0.547   9.137  0.9392 -0.1879  0.3780
 3318DECAN   C233162   3.458   0.407   9.143  0.0794  0.1748 -0.1958
 3318DECAN   C333163   3.367   0.363   9.026  0.0310  0.2369 -0.1824
 3318DECAN   C433164   3.233   0.438   9.013 -0.1691 -0.1271 -0.2401
 3318DECAN   C533165   3.139   0.424   9.133 -0.1762  0.0476 -0.2254
 3318DECAN   C633166   3.021   0.523   9.125  0.0579  0.3622  0.1529
 3318DECAN   C733167   2.952   0.528   9.263 -0.1793 -0.2368  0.0591
 3318DECAN   C833168   2.867   0.651   9.297  0.6510  0.3892 -0.1064
 3318DECAN   C933169   2.828   0.656   9.446 -0.5252 -0.2917 -0.3768
 3318DECAN  C1033170   2.740   0.780   9.467  0.4516  0.3718 -0.1255
 3319DECAN   C133171   4.819   0.139  10.443 -0.0111 -0.2351  0.7294
 3319DECAN   C233172   4.685   0.086  10.388  0.1311 -0.1039  0.2507
 3319DECAN   C333173   4.644   0.163  10.261  0.1661  0.2788  0.4694
 3319DECAN   C433174   4.501   0.143  10.208  0.2428  0.8628  0.0337
 3319DECAN   C533175   4.478   0.202  10.067  0.3802 -0.2549 -0.4729
 3319DECAN   C633176   4.328   0.193  10.034  0.2805  0.4613 -0.2265
 3319DECAN   C733177   4.295   0.248   9.893 -0.1256  0.0153 -0.3075
 3319DECAN   C833178   4.163   0.197   9.834 -0.5415  0.6628  0.0560
 3319DECAN   C933179   4.186   0.171   9.684 -0.2819  0.0732  0.1949
 3319DECAN  C1033180   4.058   0.162   9.600 -0.0819  0.5001 -0.1596
 3320DECAN   C133181   6.568   8.755  11.904  0.1980  0.2661 -0.2302
 3320DECAN   C233182   6.641   8.657  11.999  0.0354 -0.0896 -0.4682
 3320DECAN   C333183   6.537   8.551  12.035 -0.1947  0.2267 -0.1945
 3320DECAN   C433184   6.581   8.451  12.143 -0.3038  0.7166  0.3061
 3320DECAN   C533185   6.459   8.372  12.194  0.1082 -0.0360  0.1441
 3320DECAN   C633186   6.510   8.276  12.303 -0.0402 -0.1857  0.0838
 3320DECAN   C733187   6.455   8.134  12.322  0.0572 -0.1733  0.4682
 3320DECAN   C833188   6.528   8.027  12.238 -0.0408  0.0693  0.0715
 3320DECAN   C933189   6.492   7.882  12.274  0.2829 -0.1573 -0.5077
 3320DECAN  C1033190   6.579   7.772  12.210  0.5096 -0.0374 -0.4059
 3321DECAN   C133191   9.002   3.644  12.422  0.1222 -0.5297 -0.1041
 3321DECAN   C233192   8.939   3.636  12.282 -0.1562  0.4939 -0.0459
 3321DECAN   C333193   8.952   3.495  12.221 -0.7035  0.2829  0.3168
 3321DECAN   C433194   8.908   3.511  12.075  0.1445  0.1556  0.0388
 3321DECAN   C533195   8.880   3.388  11.986  0.1222  0.3821 -0.2688
 3321DECAN   C633196   8.890   3.421  11.836  0.2515  0.1021 -0.3232
 3321DECAN   C733197   8.866   3.299  11.745  0.6742 -0.0084 -0.2850
 3321DECAN   C833198   8.966   3.187  11.779  0.0928 -0.4684 -0.0739
 3321DECAN   C933199   8.952   3.069  11.682 -0.2661 -0.1868 -0.3695
 3321DECAN  C1033200   9.037   2.947  11.723 -0.4938 -0.0098  0.6511
 3322DECAN   C133201   9.511   9.916   4.499  0.9083 -0.6064 -0.0837
 3322DECAN   C233202   9.528   9.937   4.348 -0.1423  0.3289 -0.0797
 3322DECAN   C333203   9.451   9.853   4.244 -0.5834  0.0591  0.4565
 3322DECAN   C433204   9.297   9.845   4.252 -0.5927  0.1887  0.4240
 3322DECAN   C533205   9.233   9.769   4.135 -0.3746  0.6885 -0.0227
 3322DECAN   C633206   9.089   9.718   4.154  0.0655 -0.7179 -0.3353
 3322DECAN   C733207   9.012   9.660   4.033 -0.0470 -0.1432 -0.5430
 3322DECAN   C833208   8.867   9.621   4.064 -0.0417  0.1238 -0.1721
 3322DECAN   C933209   8.794   9.546   3.951 -0.6167  0.3409  0.0524
 3322DECAN  C1033210   8.644   9.523   3.980 -0.6775  0.6841  0.0199
 3323DECAN   C133211  10.563   8.545  11.693 -0.4757  0.4045 -0.7987
 3323DECAN   C233212  10.587   8.398  11.734 -0.3900  0.8216  0.6891
 3323DECAN   C333213  10.727   8.339  11.715 -0.7158  0.3909 -0.4551
 3323DECAN   C433214  10.732   8.185  11.713 -0.2805  0.3917  0.2598
 3323DECAN   C533215  10.683   8.106  11.836  0.4276 -0.0689  0.2549
 3323DECAN   C633216  10.543   8.149  11.886  0.3243 -0.1331  0.0247
 3323DECAN   C733217  10.483   8.081  12.010  0.0731  0.2228  0.1023
 3323DECAN   C833218  10.587   8.050  12.119 -0.1145  0.2893  0.3013
 3323DECAN   C933219  10.520   7.991  12.245  0.1110  0.5624  0.5507
 3323DECAN  C1033220  10.624   7.969  12.356  0.4553  0.2780  0.1757
 3324DECAN   C133221   6.779   5.117  15.123  0.0502  0.0895  0.6762
 3324DECAN   C233222   6.633   5.081  15.091  0.1064  0.2279  0.2583
 3324DECAN   C333223   6.618   4.962  14.994  0.2592  0.5184 -0.1263
 3324DECAN   C433224   6.471   4.928  14.963  0.3628  0.1138 -0.1685
 3324DECAN   C533225   6.400   5.040  14.884 -0.1105 -0.0271  0.0509
 3324DECAN   C633226   6.355   5.167  14.958 -0.5082  0.3792 -0.8742
 3324DECAN   C733227   6.243   5.258  14.904 -0.3168  0.8629 -0.4586
 3324DECAN   C833228   6.109   5.182  14.899 -0.0428  0.3514 -0.1714
 3324DECAN   C933229   6.036   5.178  15.034  0.0329 -0.0929 -0.1430
 3324DECAN  C1033230   5.965   5.306  15.083 -0.0215 -0.1670 -0.0310
 3325DECAN   C133231   2.851   0.099   9.412 -0.4019  0.4755  0.1948
 3325DECAN   C233232   2.756   0.068   9.295 -0.2029 -0.0048  0.1585
 3325DECAN   C333233   2.766  11.175   9.225 -0.1213  0.0787  0.0076
 3325DECAN   C433234   2.734  11.048   9.305  0.1235 -0.0812 -0.1457
 3325DECAN   C533235   2.731  10.916   9.226 -0.1958 -0.0729 -0.1521
 3325DECAN   C633236   2.677  10.791   9.298 -0.2598 -0.1404 -0.3171
 3325DECAN   C733237   2.674  10.663   9.212 -0.0842 -0.4801  0.1782
 3325DECAN   C833238   2.608  10.684   9.074 -0.3171  0.0292  0.3641
 3325DECAN   C933239   2.605  10.561   8.981 -0.0605  0.1973  0.1325
 3325DECAN  C1033240   2.458  10.551   8.936  0.0506 -0.0960 -0.1595
 3326DECAN   C133241   5.938   6.141  13.059  0.3992 -0.2536  0.1097
 3326DECAN   C233242   6.027   6.233  13.144 -0.0828 -0.0759  0.4294
 3326DECAN   C333243   6.169   6.174  13.158  0.1309  0.1927 -0.5438
 3326DECAN   C433244   6.179   6.047  13.245  0.3612  0.0186 -0.8217
 3326DECAN   C533245   6.118   5.917  13.190 -0.8545  0.1273  0.2320
 3326DECAN   C633246   6.119   5.792  13.279  0.2062  0.1534  0.2614
 3326DECAN   C733247   6.071   5.671  13.197 -0.2713  0.0623  0.6732
 3326DECAN   C833248   6.040   5.549  13.286 -0.0642 -0.2730  0.2909
 3326DECAN   C933249   5.963   5.572  13.418  0.2865  0.3069  0.3982
 3326DECAN  C1033250   5.948   5.453  13.514 -0.1200 -0.0351 -0.0822
 3327DECAN   C133251   9.937   6.042   9.593 -0.2183  0.4432 -0.1387
 3327DECAN   C233252   9.922   5.977   9.454  0.4657  0.0866 -0.0502
 3327DECAN   C333253   9.966   5.830   9.440  0.1104  0.0182 -0.4735
 3327DECAN   C433254   9.922   5.749   9.316 -1.0037 -0.0882 -0.0149
 3327DECAN   C533255   9.971   5.603   9.318  0.2609  0.3313  0.3797
 3327DECAN   C633256   9.964   5.550   9.174 -0.3956 -0.0099  0.5351
 3327DECAN   C733257   9.987   5.398   9.166 -0.0716  0.0627  0.0271
 3327DECAN   C833258  10.044   5.351   9.031  0.7004  0.3153  0.2611
 3327DECAN   C933259  10.088   5.204   9.017 -0.1329  0.1251 -0.4228
 3327DECAN  C1033260   9.981   5.117   9.086  0.0679  0.6912  0.6280
 3328DECAN   C133261   2.956   0.760  13.333  0.4619 -0.2630  0.3507
 3328DECAN   C233262   3.017   0.799  13.197  0.1988 -0.6513  0.1181
 3328DECAN   C333263   2.982   0.702  13.083 -0.2707  0.3523 -0.6090
 3328DECAN   C433264   2.830   0.673  13.079 -0.4215  1.0336  0.0761
 3328DECAN   C533265   2.773   0.607  13.206  0.4766 -0.0705 -0.0824
 3328DECAN   C633266   2.624   0.570  13.197  0.4244  0.0035  0.4401
 3328DECAN   C733267   2.555   0.497  13.313  0.5306 -1.2822 -0.2850
 3328DECAN   C833268   2.410   0.461  13.275  0.2622 -0.5981  0.0621
 3328DECAN   C933269   2.322   0.434  13.398 -0.6002  0.4282 -0.3252
 3328DECAN  C1033270   2.328   0.548  13.501 -0.7323  0.4900 -0.3848
 3329DECAN   C133271   3.393   2.788   9.635  0.1173  0.2876 -0.0134
 3329DECAN   C233272   3.301   2.910   9.625 -0.1645  0.0735 -0.0546
 3329DECAN   C333273   3.201   2.893   9.509 -0.3499 -0.2319  0.1488
 3329DECAN   C433274   3.265   2.903   9.370 -0.4129  0.1607  0.1465
 3329DECAN   C533275   3.184   2.827   9.264 -0.0958 -0.3672  0.2824
 3329DECAN   C633276   3.236   2.841   9.119 -0.5258  0.3036  0.1896
 3329DECAN   C733277   3.235   2.981   9.055  0.1673  0.4345  0.4498
 3329DECAN   C833278   3.274   2.984   8.906  0.6331  0.1405  0.5633
 3329DECAN   C933279   3.253   3.126   8.849 -0.2888 -0.2764 -0.1562
 3329DECAN  C1033280   3.289   3.139   8.700  0.1785 -0.0075 -0.0202
 3330DECAN   C133281   9.721   3.697   6.626 -0.0402  0.2015 -0.3310
 3330DECAN   C233282   9.868   3.691   6.673 -0.2117  0.1999  0.2105
 3330DECAN   C333283   9.896   3.780   6.796 -0.0067  0.4359 -0.0080
 3330DECAN   C433284   9.837   3.923   6.790 -0.7268  0.1430  0.0251
 3330DECAN   C533285   9.865   4.008   6.915 -0.3164  0.0626 -0.0103
 3330DECAN   C633286   9.797   4.146   6.905  0.0030  0.1654 -0.9440
 3330DECAN   C733287   9.643   4.138   6.905  0.0362 -0.6266  0.0417
 3330DECAN   C833288   9.597   4.067   7.034  0.2123 -0.1684  0.3591
 3330DECAN   C933289   9.444   4.049   7.039  0.1719  0.1283  0.1819
 3330DECAN  C1033290   9.394   3.997   7.174  0.3005 -0.8122 -0.1286
 3331DECAN   C133291   5.782  10.612  11.494 -0.6811 -0.6932  0.3222
 3331DECAN   C233292   5.654  10.572  11.570 -0.9048 -0.7522 -0.0786
 3331DECAN   C333293   5.684  10.519  11.712 -0.3498 -0.3195 -0.0308
 3331DECAN   C433294   5.552  10.524  11.790 -0.3081 -0.3568  0.0418
 3331DECAN   C533295   5.557  10.449  11.925  0.0955 -0.2642  0.0777
 3331DECAN   C633296   5.417  10.407  11.973  0.2425 -0.6155  0.1982
 3331DECAN   C733297   5.421  10.308  12.091  0.2996 -0.1155  0.6237
 3331DECAN   C833298   5.276  10.262  12.120  0.3391 -0.2181  0.6571
 3331DECAN   C933299   5.266  10.165  12.239 -0.2245 -0.7204  0.2074
 3331DECAN  C1033300   5.119  10.126  12.259 -0.4655 -0.0518 -0.2263
 3332DECAN   C133301   6.928   1.630   9.498 -0.0709 -0.1006 -0.2431
 3332DECAN   C233302   6.861   1.550   9.612 -0.1913  0.4943  0.1093
 3332DECAN   C333303   6.889   1.586   9.759 -0.3981  0.2692  0.2031
 3332DECAN   C433304   6.856   1.475   9.861 -0.0440 -0.3706 -0.3663
 3332DECAN   C533305   6.934   1.345   9.832  0.3026 -0.2139 -0.1518
 3332DECAN   C633306   6.927   1.223   9.925 -0.0414 -0.0474  0.0402
 3332DECAN   C733307   6.782   1.194   9.968 -0.0792 -0.5180 -0.4050
 3332DECAN   C833308   6.718   1.310  10.046  0.2857 -0.6177  0.0483
 3332DECAN   C933309   6.570   1.285  10.079  0.2423 -0.0596  0.2886
 3332DECAN  C1033310   6.514   1.339  10.212  0.2149  0.1105  0.2082
 3333DECAN   C133311   6.273   0.954  10.046  0.2242 -0.0980  0.2320
 3333DECAN   C233312   6.129   0.991  10.088  0.2690  0.1875  0.1327
 3333DECAN   C333313   6.123   1.132  10.149  0.5409  0.6148 -0.8026
 3333DECAN   C433314   5.985   1.201  10.152  0.2707  0.0573  0.0515
 3333DECAN   C533315   5.881   1.106  10.214 -0.0120  0.1059 -0.3426
 3333DECAN   C633316   5.916   1.070  10.359  0.2052 -0.0777 -0.4398
 3333DECAN   C733317   5.843   0.952  10.426 -0.1795  0.4136  0.0117
 3333DECAN   C833318   5.884   0.907  10.568 -0.5333  0.5934  0.1725
 3333DECAN   C933319   5.851   0.759  10.596  0.1768  0.2959 -0.5202
 3333DECAN  C1033320   5.873   0.722  10.744  0.1680  0.7924 -0.3923
 3334DECAN   C133321   5.845   3.684  10.890  0.0005 -0.0338  0.1951
 3334DECAN   C233322   5.850   3.640  11.037  0.2128 -0.9648 -0.0870
 3334DECAN   C333323   5.726   3.556  11.076 -0.1728 -0.2127  0.3254
 3334DECAN   C433324   5.732   3.491  11.215 -0.2483 -0.4101  0.2354
 3334DECAN   C533325   5.839   3.384  11.242 -0.1442 -0.3379  0.1116
 3334DECAN   C633326   5.805   3.297  11.365 -0.4736 -0.4456 -0.0553
 3334DECAN   C733327   5.917   3.201  11.410  0.1473  0.2505 -0.0937
 3334DECAN   C833328   5.903   3.067  11.336 -0.4036 -0.4209  1.1897
 3334DECAN   C933329   6.016   2.965  11.358 -0.3121 -0.4837  0.4506
 3334DECAN  C1033330   5.978   2.835  11.285 -0.7228 -0.1359  0.0347
 3335DECAN   C133331   5.297   4.432   7.308  0.0364  0.2605 -0.3905
 3335DECAN   C233332   5.397   4.549   7.306  0.2616  0.0822  0.2360
 3335DECAN   C333333   5.473   4.579   7.176  0.4914 -0.6588  0.1989
 3335DECAN   C433334   5.581   4.689   7.174 -0.4540  0.2833 -0.1158
 3335DECAN   C533335   5.653   4.718   7.042 -0.2543  0.1383 -0.0386
 3335DECAN   C633336   5.755   4.833   7.042 -0.1262  0.0267  0.4627
 3335DECAN   C733337   5.683   4.967   7.020 -0.8587 -0.4008  0.2410
 3335DECAN   C833338   5.596   4.992   6.896 -0.1739  0.1339 -0.1395
 3335DECAN   C933339   5.555   5.138   6.871 -0.0782  0.1079 -0.4441
 3335DECAN  C1033340   5.519   5.171   6.725 -0.3357 -0.0249 -0.4102
 3336DECAN   C133341   3.074   6.729   5.567  0.3615 -0.6155 -0.5226
 3336DECAN   C233342   3.048   6.638   5.689 -0.3876  0.5112  0.1721
 3336DECAN   C333343   2.901   6.651   5.731 -0.5444 -0.2656 -0.1185
 3336DECAN   C433344   2.854   6.534   5.820  0.3874 -0.7460 -0.2566
 3336DECAN   C533345   2.716   6.570   5.876  0.5256  0.4579 -0.6526
 3336DECAN   C633346   2.606   6.554   5.770  0.1795  0.2722 -0.2692
 3336DECAN   C733347   2.462   6.545   5.826  0.1108 -0.2786 -0.5178
 3336DECAN   C833348   2.344   6.525   5.729  0.0510 -0.4258 -0.4138
 3336DECAN   C933349   2.205   6.538   5.795  0.2766 -0.1842  0.0250
 3336DECAN  C1033350   2.086   6.507   5.702  0.1368  0.2668  0.0505
 3337DECAN   C133351   3.510   5.377   6.468  0.3386 -0.1710 -0.8134
 3337DECAN   C233352   3.406   5.464   6.396 -0.1081 -0.3626 -0.4015
 3337DECAN   C333353   3.426   5.474   6.244 -0.5178 -0.7560 -0.4834
 3337DECAN   C433354   3.343   5.581   6.171  0.3268  0.3116  0.0928
 3337DECAN   C533355   3.392   5.582   6.025  0.1222  0.0554  0.0200
 3337DECAN   C633356   3.347   5.690   5.925  0.1062  0.0457  0.0171
 3337DECAN   C733357   3.387   5.686   5.777  0.1758 -0.0065  0.0373
 3337DECAN   C833358   3.536   5.720   5.755  0.3125 -0.2481  0.5778
 3337DECAN   C933359   3.571   5.729   5.605  0.1576 -0.0752  0.5513
 3337DECAN  C1033360   3.716   5.779   5.592 -0.0179  0.2715 -0.0824
 3338DECAN   C133361   7.859   7.916  12.191  0.2203  0.0912  0.4294
 3338DECAN   C233362   7.940   7.788  12.219  0.3757 -0.0149 -0.4741
 3338DECAN   C333363   7.965   7.700  12.095  0.6477  0.4184 -0.7277
 3338DECAN   C433364   7.838   7.659  12.019 -0.1238  0.4329  0.5255
 3338DECAN   C533365   7.753   7.560  12.101 -0.1724 -0.3053 -0.3974
 3338DECAN   C633366   7.623   7.524  12.026 -0.1875  0.1345 -0.5868
 3338DECAN   C733367   7.531   7.420  12.094 -0.2199  0.3484 -0.3008
 3338DECAN   C833368   7.418   7.369  12.003 -0.6257  0.4139  0.1678
 3338DECAN   C933369   7.318   7.276  12.076  0.1140 -0.8936 -0.4418
 3338DECAN  C1033370   7.183   7.240  12.012 -0.5084 -0.0756  0.3821
 3339DECAN   C133371   6.514   9.035  15.036 -0.2946  0.1067 -0.1238
 3339DECAN   C233372   6.558   9.148  14.942 -0.3210 -0.2216 -0.5305
 3339DECAN   C333373   6.482   9.276  14.982  0.0161  0.0672 -0.7945
 3339DECAN   C433374   6.531   9.401  14.907 -0.0467  0.4437 -0.2142
 3339DECAN   C533375   6.469   9.414  14.767 -0.1299 -0.1833 -0.2409
 3339DECAN   C633376   6.523   9.537  14.691  0.8503 -0.3088  0.2325
 3339DECAN   C733377   6.479   9.531  14.543  0.0042  0.2622  0.4523
 3339DECAN   C833378   6.503   9.396  14.472 -0.1316  0.2293  0.4696
 3339DECAN   C933379   6.648   9.372  14.426 -0.2911  0.1928 -0.0248
 3339DECAN  C1033380   6.680   9.244  14.347  0.8538  0.4279  0.0313
 3340DECAN   C133381   1.693   8.063   9.129  0.2018  0.2325 -0.4103
 3340DECAN   C233382   1.846   8.079   9.135  0.1738  0.3498 -0.0025
 3340DECAN   C333383   1.919   7.975   9.048  0.3013  0.6648 -0.2741
 3340DECAN   C433384   1.903   7.986   8.895  0.5303  0.0067 -0.3484
 3340DECAN   C533385   1.845   7.869   8.814 -0.0168 -0.0606  0.1319
 3340DECAN   C633386   1.837   7.892   8.662 -0.4679 -0.1733  0.1377
 3340DECAN   C733387   1.768   7.779   8.583 -0.3418 -0.2326  0.1130
 3340DECAN   C833388   1.619   7.772   8.621 -0.3090  0.0922  0.3039
 3340DECAN   C933389   1.552   7.907   8.653  0.0225  0.2932  0.1570
 3340DECAN  C1033390   1.398   7.910   8.658  0.0150 -0.4296  0.5607
 3341DECAN   C133391   6.617   2.032   9.512  0.1949 -0.2075 -0.0367
 3341DECAN   C233392   6.750   1.956   9.527  0.3493  0.1233  0.2783
 3341DECAN   C333393   6.870   2.047   9.495  0.1561  0.3745  0.2663
 3341DECAN   C433394   6.848   2.153   9.385 -0.0614  0.1240  0.0659
 3341DECAN   C533395   6.737   2.250   9.430 -0.2808 -0.1598  0.1348
 3341DECAN   C633396   6.697   2.362   9.332 -0.0305  0.0525  0.2755
 3341DECAN   C733397   6.660   2.307   9.193  0.4556  0.4040  0.0048
 3341DECAN   C833398   6.633   2.427   9.099 -0.2572  0.0516 -0.2459
 3341DECAN   C933399   6.626   2.396   8.948 -0.0214 -0.2101 -0.2043
 3341DECAN  C1033400   6.628   2.527   8.866 -0.3743 -0.2044 -0.2031
 3342DECAN   C133401   4.345  10.136   9.839  0.3342  0.1704  0.1911
 3342DECAN   C233402   4.419  10.012   9.784  0.1620  0.0578  0.2156
 3342DECAN   C333403   4.453   9.902   9.887  0.2015 -0.1942 -0.0662
 3342DECAN   C433404   4.493   9.765   9.830  0.1864 -0.2987  0.1748
 3342DECAN   C533405   4.578   9.678   9.926  0.4419 -0.3826 -0.1250
 3342DECAN   C633406   4.624   9.545   9.864 -0.2453 -0.7049  0.0479
 3342DECAN   C733407   4.739   9.557   9.762 -0.3657  0.0747 -0.0038
 3342DECAN   C833408   4.789   9.432   9.687  0.0231  0.6513 -0.7197
 3342DECAN   C933409   4.834   9.456   9.542  0.2234  0.1335 -0.7459
 3342DECAN  C1033410   4.865   9.317   9.484 -0.4188 -0.0605 -0.6365
 3343DECAN   C133411   3.838   0.778  10.840  0.0625 -0.4713  0.0379
 3343DECAN   C233412   3.727   0.804  10.943 -0.1058 -0.0620 -0.2459
 3343DECAN   C333413   3.747   0.942  11.010 -0.2672 -0.1062 -0.1060
 3343DECAN   C433414   3.647   0.964  11.125 -0.3037 -0.4519 -0.0709
 3343DECAN   C533415   3.503   0.946  11.072 -0.4711  0.1879  0.1690
 3343DECAN   C633416   3.402   1.042  11.138 -0.1368  0.3888  0.3892
 3343DECAN   C733417   3.261   1.020  11.081  0.2852  0.0083 -0.5182
 3343DECAN   C833418   3.202   0.883  11.120 -0.0157  0.1491 -0.4770
 3343DECAN   C933419   3.247   0.773  11.022 -0.4498 -0.1981 -0.2925
 3343DECAN  C1033420   3.194   0.629  11.030 -0.2402 -0.2693 -0.1925
 3344DECAN   C133421   2.347   2.440   7.324 -0.3236 -0.2798  0.1618
 3344DECAN   C233422   2.459   2.540   7.359 -0.3856 -0.2583  0.2982
 3344DECAN   C333423   2.430   2.628   7.483  0.0147 -0.5832  0.6220
 3344DECAN   C433424   2.535   2.740   7.497 -0.3332 -0.1901  0.1236
 3344DECAN   C533425   2.489   2.840   7.604 -0.7047  0.3106 -0.4931
 3344DECAN   C633426   2.597   2.944   7.641 -0.7458  0.1977 -0.0513
 3344DECAN   C733427   2.565   3.060   7.737  0.2722  0.2813  0.1991
 3344DECAN   C833428   2.539   3.026   7.885  0.2476  0.0932  0.1515
 3344DECAN   C933429   2.517   3.136   7.990  0.1329 -0.2099  0.4477
 3344DECAN  C1033430   2.470   3.079   8.125  0.3387 -0.5671  0.3703
 3345DECAN   C133431   7.711   2.600   6.868 -0.6170  0.4341  0.2839
 3345DECAN   C233432   7.650   2.683   6.754 -0.3145 -0.1914 -0.3385
 3345DECAN   C333433   7.721   2.817   6.729 -0.6845  0.2076  0.7109
 3345DECAN   C433434   7.654   2.909   6.625 -0.0707 -0.0442  0.0820
 3345DECAN   C533435   7.647   2.833   6.491 -0.1739 -0.0657  0.0995
 3345DECAN   C633436   7.523   2.863   6.405 -0.1683 -0.5607 -0.0834
 3345DECAN   C733437   7.520   2.783   6.273  0.1919 -0.3176 -0.2409
 3345DECAN   C833438   7.416   2.800   6.161  0.2686 -0.5794 -0.3514
 3345DECAN   C933439   7.409   2.944   6.108  0.4520 -0.4147  0.0653
 3345DECAN  C1033440   7.309   2.962   5.992 -0.0833 -0.4431  0.5193
 3346DECAN   C133441   4.484   3.017  11.524  0.0945 -0.3377 -0.4830
 3346DECAN   C233442   4.370   2.945  11.599  0.6033 -0.3899  0.2457
 3346DECAN   C333443   4.236   2.985  11.535  0.7166 -0.4617 -0.0402
 3346DECAN   C433444   4.100   2.931  11.583  0.2523  0.1061 -0.7039
 3346DECAN   C533445   3.972   2.976  11.510  0.2151 -0.1875 -0.8198
 3346DECAN   C633446   3.977   2.972  11.356  0.6595  0.7007 -0.8354
 3346DECAN   C733447   3.836   2.970  11.294  0.0810 -0.6299  0.4439
 3346DECAN   C833448   3.837   2.925  11.146  0.3369  0.1076  0.2168
 3346DECAN   C933449   3.856   2.777  11.108  0.3084  0.1212  0.1502
 3346DECAN  C1033450   3.864   2.749  10.957  0.5591 -0.2167  0.2260
 3347DECAN   C133451  10.439   3.964  13.339 -0.5985 -0.3930 -0.8958
 3347DECAN   C233452  10.441   3.810  13.333  0.1172 -0.4273  0.0352
 3347DECAN   C333453  10.470   3.727  13.459  0.2910 -0.2366  0.1213
 3347DECAN   C433454  10.369   3.760  13.571  0.7625  0.2222  0.4155
 3347DECAN   C533455  10.368   3.908  13.614  0.6499  0.2040  0.4734
 3347DECAN   C633456  10.255   3.946  13.712  0.0233 -0.6818  0.1126
 3347DECAN   C733457  10.112   3.953  13.656  0.1246 -0.7325 -0.1558
 3347DECAN   C833458   9.989   3.960  13.748  0.1155 -0.3554 -0.1936
 3347DECAN   C933459   9.962   3.830  13.826 -0.3134 -0.3206 -0.2769
 3347DECAN  C1033460   9.851   3.842  13.932 -0.0392  0.2641 -0.0536
 3348DECAN   C133461   7.874   2.607  11.127  0.3592 -0.1579  0.3700
 3348DECAN   C233462   8.003   2.665  11.187  0.4048 -0.3003  0.4096
 3348DECAN   C333463   8.134   2.628  11.115  0.1526 -0.0458 -0.1927
 3348DECAN   C433464   8.266   2.696  11.155  0.1990 -0.3943  0.2520
 3348DECAN   C533465   8.388   2.694  11.061 -0.2239  0.1673 -0.3128
 3348DECAN   C633466   8.497   2.792  11.108 -0.2119  0.4184 -0.8631
 3348DECAN   C733467   8.633   2.748  11.052 -0.0098 -0.4606  0.2915
 3348DECAN   C833468   8.635   2.733  10.899 -0.1535 -0.4194  0.2857
 3348DECAN   C933469   8.774   2.700  10.840 -0.2097  0.0129 -0.0954
 3348DECAN  C1033470   8.856   2.590  10.910  0.1637  0.4031  0.0863
 3349DECAN   C133471   2.893   6.023  11.332  0.7727 -0.2935  0.7519
 3349DECAN   C233472   2.781   5.998  11.433 -0.0607 -0.2491 -0.1477
 3349DECAN   C333473   2.674   6.109  11.435 -0.1872 -0.3725  0.1578
 3349DECAN   C433474   2.603   6.118  11.299 -0.1955 -0.2872  0.1672
 3349DECAN   C533475   2.473   6.201  11.293  0.1030  0.1812  0.0955
 3349DECAN   C633476   2.506   6.347  11.326 -0.5789  0.2358  0.5520
 3349DECAN   C733477   2.403   6.461  11.311 -0.5124  0.1873 -0.3324
 3349DECAN   C833478   2.467   6.589  11.254 -0.2500  0.0961 -0.2445
 3349DECAN   C933479   2.555   6.582  11.128  0.3783  0.5883  0.1619
 3349DECAN  C1033480   2.472   6.546  11.003  0.3666  0.2932  0.2528
 3350DECAN   C133481   7.176  11.210   3.965  0.3054 -0.0792 -0.3117
 3350DECAN   C233482   7.301  11.200   4.055  0.0487  0.3391  0.0927
 3350DECAN   C333483   7.320  11.059   4.112  0.0910  0.2596 -0.1166
 3350DECAN   C433484   7.358  10.956   4.004  0.4683 -0.1128  0.3642
 3350DECAN   C533485   7.507  10.977   3.971  0.4140 -0.1562  0.0898
 3350DECAN   C633486   7.538  11.125   3.941 -0.3113  0.0271  0.2187
 3350DECAN   C733487   7.690  11.147   3.946 -0.2662 -0.2621  0.1655
 3350DECAN   C833488   7.747   0.043   3.918 -0.3928 -0.2207  0.1133
 3350DECAN   C933489   7.895   0.066   3.954 -0.1422 -0.0567 -0.9653
 3350DECAN  C1033490   7.944   0.204   3.906  0.4772  0.1945  0.3376
 3351DECAN   C133491   8.734   8.585   6.912 -0.0837 -0.0701 -0.0587
 3351DECAN   C233492   8.675   8.671   6.799  0.0772  0.2488  0.0989
 3351DECAN   C333493   8.727   8.641   6.657  0.0417  0.4941  0.0326
 3351DECAN   C433494   8.667   8.736   6.551 -0.0944  0.8475  0.4230
 3351DECAN   C533495   8.746   8.756   6.421  0.0891 -0.0950  0.3829
 3351DECAN   C633496   8.659   8.816   6.310  0.4352  0.4780  0.4203
 3351DECAN   C733497   8.749   8.863   6.194  0.0161 -0.2498 -0.2078
 3351DECAN   C833498   8.840   8.751   6.139 -0.1190 -0.5015  0.0801
 3351DECAN   C933499   8.933   8.777   6.020  0.3950 -0.4787  0.4816
 3351DECAN  C1033500   9.026   8.898   6.040  0.0418 -0.2252  0.5991
 3352DECAN   C133501  10.479   4.493  12.345 -0.2101 -0.0504 -0.2371
 3352DECAN   C233502  10.397   4.592  12.430 -0.0854  0.2355 -0.4493
 3352DECAN   C333503  10.459   4.730  12.456 -0.0780  0.1686 -0.1059
 3352DECAN   C433504  10.380   4.816  12.556  0.6523 -0.1791  0.7800
 3352DECAN   C533505  10.433   4.960  12.568  0.5837 -0.1276  0.4670
 3352DECAN   C633506  10.344   5.051  12.654 -0.1765 -0.3153 -0.1057
 3352DECAN   C733507  10.278   4.975  12.771 -0.3636 -0.4648 -0.3085
 3352DECAN   C833508  10.201   5.078  12.856 -0.0422 -0.2493 -0.2748
 3352DECAN   C933509  10.173   5.020  12.996  0.2103  0.5819  0.1250
 3352DECAN  C1033510  10.057   5.074  13.081  0.7541  0.7758  0.7613
 3353DECAN   C133511   1.410   4.315  10.582 -0.1749 -0.8428 -0.2855
 3353DECAN   C233512   1.454   4.320  10.730 -0.3091 -0.3023 -0.2619
 3353DECAN   C333513   1.370   4.415  10.817  0.3882  0.1204 -0.0451
 3353DECAN   C433514   1.397   4.388  10.966 -0.5747 -0.1282  0.0911
 3353DECAN   C533515   1.326   4.477  11.070  0.1999  0.1467  0.3987
 3353DECAN   C633516   1.314   4.412  11.209 -0.0293  0.3979  0.4976
 3353DECAN   C733517   1.214   4.482  11.302 -0.3126  0.1127  0.4094
 3353DECAN   C833518   1.065   4.470  11.264 -0.1657 -0.8437  0.1003
 3353DECAN   C933519   0.962   4.482  11.378 -0.1992 -0.3811  0.0264
 3353DECAN  C1033520   0.819   4.439  11.340 -0.0404 -0.4419 -0.5158
 3354DECAN   C133521   7.910   0.971  10.867  0.0674 -0.1868 -0.3566
 3354DECAN   C233522   8.021   1.077  10.863 -0.3921  0.3848  1.2738
 3354DECAN   C333523   8.154   1.029  10.926 -0.1796 -0.1263  0.4447
 3354DECAN   C433524   8.212   0.914  10.841  0.0442  0.2398  0.0964
 3354DECAN   C533525   8.231   0.933  10.690  0.1045 -0.0831  0.0625
 3354DECAN   C633526   8.271   0.808  10.610  0.7539  0.0671  0.1412
 3354DECAN   C733527   8.240   0.805  10.459  0.1090 -0.1054  0.2724
 3354DECAN   C833528   8.303   0.679  10.396 -0.8523 -0.2599 -0.4082
 3354DECAN   C933529   8.297   0.669  10.242 -0.8455 -0.4667 -0.3948
 3354DECAN  C1033530   8.412   0.579  10.192 -0.2778 -0.1536  0.3283
 3355DECAN   C133531   5.813   3.480   7.897  0.0100 -0.3075  0.3673
 3355DECAN   C233532   5.743   3.354   7.842  0.1248 -0.0906 -0.2758
 3355DECAN   C333533   5.674   3.377   7.706  0.6763 -0.4131 -0.6124
 3355DECAN   C433534   5.776   3.370   7.590  0.6122  0.0191 -0.6962
 3355DECAN   C533535   5.892   3.466   7.625  0.5298 -0.0055 -0.3519
 3355DECAN   C633536   6.003   3.484   7.521  0.4745 -0.2744 -0.4579
 3355DECAN   C733537   6.127   3.567   7.559  0.0848  0.1249 -0.0626
 3355DECAN   C833538   6.099   3.718   7.551  0.4326  0.2099  0.2759
 3355DECAN   C933539   5.965   3.770   7.607  0.5081 -0.0228  0.6760
 3355DECAN  C1033540   5.956   3.924   7.616  0.0066  0.0023 -0.1298
 3356DECAN   C133541   5.285  10.453  10.943  0.1150 -0.2429  0.1502
 3356DECAN   C233542   5.382  10.479  10.827  0.1437 -0.0146  0.2245
 3356DECAN   C333543   5.351  10.603  10.739  0.5153  0.2742  0.4977
 3356DECAN   C433544   5.446  10.625  10.620 -0.0948  0.5657  0.0640
 3356DECAN   C533545   5.579  10.569  10.673 -0.0793  0.1209 -0.4396
 3356DECAN   C633546   5.700  10.601  10.582  0.3667  0.1948  0.1722
 3356DECAN   C733547   5.691  10.523  10.450  0.3619  0.0468  0.2594
 3356DECAN   C833548   5.816  10.551  10.365 -0.2277  0.4876 -0.4809
 3356DECAN   C933549   5.823  10.474  10.232  0.6847  0.2958 -0.3306
 3356DECAN  C1033550   5.849  10.322  10.236 -0.5628  0.0896  0.6677
 3357DECAN   C133551   6.151   3.272  12.098  0.2117  0.4264  0.0424
 3357DECAN   C233552   6.234   3.144  12.117 -0.1183  0.1689 -0.2343
 3357DECAN   C333553   6.320   3.141  12.245  0.2661 -0.8090 -0.5011
 3357DECAN   C433554   6.259   3.060  12.360 -0.5227 -0.0422 -0.3700
 3357DECAN   C533555   6.279   3.106  12.506 -0.1406 -0.4420 -0.2956
 3357DECAN   C633556   6.240   3.000  12.611  0.0830 -0.0657  0.1709
 3357DECAN   C733557   6.113   2.917  12.585  0.3668 -0.3473 -0.3424
 3357DECAN   C833558   6.092   2.807  12.691  0.0506 -0.0077 -0.0523
 3357DECAN   C933559   5.979   2.705  12.669 -0.0248  0.0991 -0.1626
 3357DECAN  C1033560   5.854   2.772  12.609 -0.3298  0.0250  0.3913
 3358DECAN   C133561   8.401  10.918  11.706 -0.0832 -0.1676 -0.0994
 3358DECAN   C233562   8.268  10.841  11.699 -0.1418 -0.0687 -0.0836
 3358DECAN   C333563   8.214  10.807  11.558  0.2550 -0.4595 -0.1431
 3358DECAN   C433564   8.075  10.741  11.555  0.2127 -0.4330  0.7508
 3358DECAN   C533565   7.971  10.812  11.642  0.3493  0.2052  0.4008
 3358DECAN   C633566   7.841  10.732  11.656 -0.1904  0.9471 -0.2506
 3358DECAN   C733567   7.793  10.664  11.527 -0.0256 -0.0795  0.2122
 3358DECAN   C833568   7.656  10.595  11.520 -0.0057 -0.0541 -0.5516
 3358DECAN   C933569   7.633  10.524  11.385  0.1015 -0.7827 -0.1961
 3358DECAN  C1033570   7.495  10.458  11.376 -0.3951  0.2129  0.0006
 3359DECAN   C133571   4.723   2.265   6.085 -0.3216 -0.7246  0.3878
 3359DECAN   C233572   4.833   2.170   6.034  0.1332  0.1068 -0.2128
 3359DECAN   C333573   4.794   2.031   6.088  0.0281  0.3268  0.2888
 3359DECAN   C433574   4.861   1.908   6.023 -0.4729 -0.1686  0.6967
 3359DECAN   C533575   5.006   1.901   6.073 -0.2218  0.0543  0.0167
 3359DECAN   C633576   5.081   1.777   6.022  0.1692  0.2752  0.0461
 3359DECAN   C733577   5.234   1.783   6.040  0.0961 -0.1937  0.8683
 3359DECAN   C833578   5.307   1.654   5.999 -0.1170 -0.1671  0.4025
 3359DECAN   C933579   5.459   1.672   5.986 -0.2036  0.0132 -0.4636
 3359DECAN  C1033580   5.518   1.691   6.127 -0.4277 -0.4365 -0.3054
 3360DECAN   C133581   4.758   1.972   4.242  0.3955  0.0021  0.1583
 3360DECAN   C233582   4.710   2.008   4.100  0.6258  0.5665  0.2212
 3360DECAN   C333583   4.750   2.153   4.067  0.2030  0.6499  0.0651
 3360DECAN   C433584   4.902   2.179   4.060  0.1797  0.8158  0.1742
 3360DECAN   C533585   4.982   2.125   4.179 -0.4507 -0.5738 -0.0038
 3360DECAN   C633586   5.122   2.188   4.194 -0.7507  0.0517  0.2342
 3360DECAN   C733587   5.196   2.134   4.318 -0.1573  0.3246  0.0064
 3360DECAN   C833588   5.191   1.983   4.348  0.6231  0.3108  0.0737
 3360DECAN   C933589   5.252   1.886   4.246 -0.4889  0.0157 -0.3248
 3360DECAN  C1033590   5.255   1.737   4.283  0.3274  0.1787  0.2924
 3361DECAN   C133591   8.870   5.860   7.418 -0.3818 -0.5319 -0.4657
 3361DECAN   C233592   8.776   5.891   7.300 -0.5961 -0.3000 -0.2369
 3361DECAN   C333593   8.752   5.766   7.213 -0.1966 -0.1824 -0.5207
 3361DECAN   C433594   8.888   5.709   7.170  0.0940  0.0919  0.0230
 3361DECAN   C533595   8.968   5.802   7.077  0.6791 -0.4484 -0.0217
 3361DECAN   C633596   9.098   5.749   7.014  0.6236 -0.1576 -0.3845
 3361DECAN   C733597   9.179   5.856   6.938  0.2853  0.1589 -0.2988
 3361DECAN   C833598   9.299   5.797   6.863  0.3807  0.0118 -0.0309
 3361DECAN   C933599   9.392   5.891   6.784  0.4603 -0.1057 -0.0778
 3361DECAN  C1033600   9.497   5.808   6.707  0.5493  0.0964 -0.1754
 3362DECAN   C133601   3.476   4.281   5.921 -0.0826  0.7646  0.2810
 3362DECAN   C233602   3.385   4.403   5.894 -0.6114  0.2214 -0.4663
 3362DECAN   C333603   3.431   4.488   5.775 -0.2623  0.1776 -0.3640
 3362DECAN   C433604   3.583   4.512   5.778 -0.2167 -0.1467  0.0031
 3362DECAN   C533605   3.630   4.592   5.901 -0.3534 -0.0032 -0.0384
 3362DECAN   C633606   3.774   4.647   5.894 -0.1457 -0.5400  0.0063
 3362DECAN   C733607   3.805   4.746   6.007 -0.2033 -0.3936 -0.1054
 3362DECAN   C833608   3.954   4.760   6.043 -0.2649 -0.3667  0.1423
 3362DECAN   C933609   4.004   4.837   6.166  0.1087  0.0688 -0.2794
 3362DECAN  C1033610   4.156   4.815   6.180  0.1464  0.4524 -0.0410
 3363DECAN   C133611   8.132   2.828   4.415 -0.3831  0.6144 -0.2672
 3363DECAN   C233612   8.007   2.738   4.416  0.0202  0.0458 -0.0730
 3363DECAN   C333613   7.881   2.816   4.374 -0.0632 -0.5886 -1.0209
 3363DECAN   C433614   7.751   2.741   4.410 -0.2581  0.1252 -0.2164
 3363DECAN   C533615   7.738   2.596   4.360 -0.0903 -0.0399  0.2062
 3363DECAN   C633616   7.831   2.497   4.432 -0.0826  0.2095  0.5397
 3363DECAN   C733617   7.793   2.348   4.420  0.3046  0.1423  0.1533
 3363DECAN   C833618   7.868   2.253   4.515  0.1553  0.0327  0.1627
 3363DECAN   C933619   7.885   2.311   4.657  0.8350 -0.0721  0.1267
 3363DECAN  C1033620   7.992   2.421   4.670  0.2837  0.4453  0.3047
 3364DECAN   C133621   7.912   0.289   7.693 -0.0232 -0.4169  0.1656
 3364DECAN   C233622   7.906   0.423   7.769  0.2377  0.0791 -0.6840
 3364DECAN   C333623   7.849   0.411   7.911  0.2189  0.2098 -0.6801
 3364DECAN   C433624   7.854   0.546   7.985 -1.0427 -0.0867 -0.0194
 3364DECAN   C533625   7.817   0.524   8.133 -0.1957  0.3025  0.2587
 3364DECAN   C633626   7.669   0.486   8.155 -0.0806 -0.0920  0.3650
 3364DECAN   C733627   7.610   0.490   8.297 -0.6535 -0.1255  0.1284
 3364DECAN   C833628   7.456   0.505   8.294 -0.6267  0.0987 -0.1986
 3364DECAN   C933629   7.407   0.451   8.429  0.1489 -0.5379 -0.1572
 3364DECAN  C1033630   7.402   0.298   8.444  0.1024 -0.5358 -0.1487
 3365DECAN   C133631   2.677   7.272  11.176 -0.3110 -0.6505  0.0998
 3365DECAN   C233632   2.779   7.219  11.278 -0.2724 -0.2302  0.2781
 3365DECAN   C333633   2.871   7.335  11.321 -0.2660  0.0790 -0.5533
 3365DECAN   C433634   2.970   7.367  11.207  0.1045  0.3491 -0.1600
 3365DECAN   C533635   3.071   7.253  11.185  0.3159  0.5625 -0.3014
 3365DECAN   C633636   3.154   7.228  11.313 -0.0349 -0.3124 -0.2360
 3365DECAN   C733637   3.258   7.115  11.320  0.0261 -0.2304  0.1936
 3365DECAN   C833638   3.392   7.172  11.270 -0.1499 -0.2320 -0.2800
 3365DECAN   C933639   3.504   7.072  11.302  0.0803  0.0753 -0.1199
 3365DECAN  C1033640   3.650   7.111  11.271  0.1573 -0.0242  0.1181
 3366DECAN   C133641   7.957  10.010  15.008  0.0543  0.5641  0.8004
 3366DECAN   C233642   8.045   9.887  14.979 -0.9108 -0.0180  0.2964
 3366DECAN   C333643   7.998   9.746  15.022  0.2349 -0.4964  0.0092
 3366DECAN   C433644   7.893   9.682  14.930  0.0251  0.7385 -0.6386
 3366DECAN   C533645   7.819   9.782  14.840  0.8099  0.4933 -1.5777
 3366DECAN   C633646   7.685   9.723  14.792  0.5174 -0.0181 -0.1922
 3366DECAN   C733647   7.649   9.761  14.647  0.2117  0.4122 -0.0052
 3366DECAN   C833648   7.507   9.716  14.608  0.3158  0.1353 -0.0659
 3366DECAN   C933649   7.470   9.728  14.459  0.1556 -0.2167 -0.0551
 3366DECAN  C1033650   7.322   9.701  14.425  0.0796 -0.1645  0.2346
 3367DECAN   C133651   5.042   7.117  15.102  0.2682 -0.4913  0.0612
 3367DECAN   C233652   5.195   7.135  15.107  0.2226  0.1256 -0.6017
 3367DECAN   C333653   5.277   7.039  15.020  0.2929 -0.2114 -0.1671
 3367DECAN   C433654   5.425   7.080  15.004  0.2182  0.0965 -0.0718
 3367DECAN   C533655   5.501   6.988  14.908  0.5965  0.2842  0.0468
 3367DECAN   C633656   5.412   6.957  14.787 -0.0518  0.2317  0.5338
 3367DECAN   C733657   5.350   7.072  14.705  0.2351  0.1693  0.2275
 3367DECAN   C833658   5.286   7.018  14.576  0.1034  0.3073  0.2336
 3367DECAN   C933659   5.215   7.120  14.486  0.0279  0.0104 -0.0473
 3367DECAN  C1033660   5.308   7.222  14.417 -0.3985  0.5119  0.1085
 3368DECAN   C133661   4.185  10.002  11.426  0.2390  0.3425 -0.3122
 3368DECAN   C233662   4.335  10.013  11.457  0.1534 -0.0743  0.2692
 3368DECAN   C333663   4.385  10.139  11.530 -0.3158  0.4902 -0.3649
 3368DECAN   C433664   4.532  10.140  11.577 -0.4486  0.2869  0.0614
 3368DECAN   C533665   4.568  10.275  11.642 -0.4956  0.3039  0.0533
 3368DECAN   C633666   4.720  10.282  11.667 -0.5168 -0.1292  0.3141
 3368DECAN   C733667   4.782  10.170  11.753 -0.1776 -0.1335  0.0659
 3368DECAN   C833668   4.694  10.133  11.874  0.0990  0.1419  0.3508
 3368DECAN   C933669   4.773  10.068  11.990  0.2783  0.2101  0.2690
 3368DECAN  C1033670   4.836   9.932  11.956 -0.3802  0.0065 -0.1545
 3369DECAN   C133671   4.925   8.893   4.299 -0.0768 -0.2196  0.3616
 3369DECAN   C233672   5.004   9.021   4.333 -0.4375  0.2602 -0.5575
 3369DECAN   C333673   4.925   9.101   4.439 -0.6372 -0.1231 -0.4110
 3369DECAN   C433674   4.904   9.057   4.584 -0.9697  0.0499 -0.4059
 3369DECAN   C533675   4.815   9.159   4.659  0.0393  0.4619  0.2629
 3369DECAN   C633676   4.791   9.120   4.806 -0.0882  0.0736  0.1422
 3369DECAN   C733677   4.918   9.096   4.889  0.2973 -0.2828 -0.5362
 3369DECAN   C833678   5.021   9.211   4.880  0.1838 -0.1646 -0.3380
 3369DECAN   C933679   5.160   9.185   4.941 -0.3183 -0.3188  0.7677
 3369DECAN  C1033680   5.266   9.287   4.896 -0.7996 -0.2590 -0.2513
 3370DECAN   C133681   5.777   3.256   9.086  0.2063 -0.7275 -0.8213
 3370DECAN   C233682   5.655   3.171   9.046 -0.0977 -0.3912 -0.6264
 3370DECAN   C333683   5.561   3.123   9.158 -0.0615 -0.1153 -0.4782
 3370DECAN   C433684   5.491   2.989   9.133 -0.5586  0.1209 -0.3735
 3370DECAN   C533685   5.402   2.956   9.254 -0.3072  0.1962 -0.1694
 3370DECAN   C633686   5.314   3.069   9.311  0.0771  0.5700 -0.3076
 3370DECAN   C733687   5.397   3.192   9.351  0.0769  0.4380  0.1021
 3370DECAN   C833688   5.306   3.307   9.398 -0.1648  0.3346 -0.1112
 3370DECAN   C933689   5.403   3.418   9.441  0.1609  0.1418 -0.3476
 3370DECAN  C1033690   5.348   3.549   9.501  0.4864  0.1175  0.0042
 3371DECAN   C133691   9.963  10.855   8.902 -0.9453 -0.0668  0.3937
 3371DECAN   C233692  10.032  10.982   8.849 -0.7417 -0.3946 -0.1463
 3371DECAN   C333693   9.954  11.115   8.859  0.1078  0.1154 -0.2675
 3371DECAN   C433694  10.055  11.229   8.835  0.3735 -0.1266 -0.3079
 3371DECAN   C533695   9.984   0.121   8.843  0.5958 -0.0114 -0.2858
 3371DECAN   C633696   9.921   0.147   8.705 -1.0816 -0.2537  0.4187
 3371DECAN   C733697   9.862   0.289   8.694 -0.4740 -0.0277  0.0261
 3371DECAN   C833698   9.746   0.334   8.785 -0.3620  0.3075  0.0031
 3371DECAN   C933699   9.693   0.479   8.784  0.1405  0.4939 -0.4874
 3371DECAN  C1033700   9.550   0.490   8.841  0.0918  0.2931 -0.5706
 3372DECAN   C133701   5.143   1.317  10.340  0.2856 -0.1323  0.3650
 3372DECAN   C233702   5.116   1.286  10.488  0.0309  0.0333  0.3558
 3372DECAN   C333703   4.981   1.337  10.541 -0.0734 -0.2626  0.3768
 3372DECAN   C433704   4.967   1.286  10.686 -0.5539 -0.3300  0.3069
 3372DECAN   C533705   4.836   1.326  10.756 -0.3932 -0.0525  0.4502
 3372DECAN   C633706   4.845   1.269  10.899  0.2979  0.2270  0.5210
 3372DECAN   C733707   4.722   1.304  10.984  0.0457  0.1547  0.1878
 3372DECAN   C833708   4.718   1.455  11.016  0.4228  0.2754 -0.3188
 3372DECAN   C933709   4.577   1.489  11.068  0.0488 -0.9009 -0.5372
 3372DECAN  C1033710   4.519   1.409  11.186 -1.1779  0.1386 -0.4067
 3373DECAN   C133711   7.740   5.095  11.583 -0.2892 -0.1398  0.1705
 3373DECAN   C233712   7.823   4.966  11.598 -0.0860 -0.0223  0.0583
 3373DECAN   C333713   7.756   4.867  11.696  0.0792  0.0638  0.2601
 3373DECAN   C433714   7.619   4.813  11.651 -0.0719  0.6689 -0.0298
 3373DECAN   C533715   7.613   4.749  11.511 -0.0568  0.0718  0.2369
 3373DECAN   C633716   7.496   4.654  11.479  0.1118  0.0771 -0.4099
 3373DECAN   C733717   7.504   4.562  11.356 -0.1976 -0.4311 -0.0537
 3373DECAN   C833718   7.410   4.440  11.348 -0.8671  0.1381 -1.0974
 3373DECAN   C933719   7.440   4.347  11.230  0.3615 -0.3120 -0.4438
 3373DECAN  C1033720   7.568   4.265  11.257  0.8155  0.4774 -0.1916
 3374DECAN   C133721   7.003   7.500   4.932 -0.4368  0.3229  0.2294
 3374DECAN   C233722   7.051   7.635   4.988  0.0052  0.1200  0.3408
 3374DECAN   C333723   6.960   7.754   4.951  0.3719  0.3450  0.1488
 3374DECAN   C433724   6.951   7.864   5.059 -0.1103  0.2372  0.2219
 3374DECAN   C533725   7.087   7.925   5.099  0.1380 -0.2376  0.1124
 3374DECAN   C633726   7.161   8.003   4.989 -0.0696 -0.2813 -0.0593
 3374DECAN   C733727   7.088   8.133   4.953  0.6268  0.3172  0.6472
 3374DECAN   C833728   7.140   8.221   4.838 -0.2357 -0.0373 -0.0341
 3374DECAN   C933729   7.097   8.367   4.861  0.5194  0.1410  0.2885
 3374DECAN  C1033730   6.943   8.365   4.867  0.4921  0.0199 -0.3343
 3375DECAN   C133731   9.723   4.300   9.022 -0.4324  0.3005 -0.8801
 3375DECAN   C233732   9.570   4.299   9.004 -0.5556 -0.1734  0.1046
 3375DECAN   C333733   9.490   4.346   9.126 -0.1738  0.0780  0.2613
 3375DECAN   C433734   9.482   4.240   9.238 -0.4450 -0.5607 -0.3549
 3375DECAN   C533735   9.391   4.283   9.355  0.3172  0.2269 -0.0386
 3375DECAN   C633736   9.376   4.177   9.465  0.6649  0.7020  0.4672
 3375DECAN   C733737   9.247   4.192   9.547 -0.0442 -0.2550 -0.4476
 3375DECAN   C833738   9.204   4.336   9.582  0.1347 -0.2161 -0.3898
 3375DECAN   C933739   9.132   4.396   9.460  0.2486  0.5992 -0.0583
 3375DECAN  C1033740   9.074   4.536   9.489  0.1130  0.4689  0.3093
 3376DECAN   C133741   7.886   7.054   3.964 -0.1186  0.2535 -0.4100
 3376DECAN   C233742   7.765   7.097   3.879 -0.4601  0.5420  0.2154
 3376DECAN   C333743   7.649   6.996   3.886 -0.0306  0.0548  0.3760
 3376DECAN   C433744   7.700   6.857   3.843  0.3160  0.3102 -0.0606
 3376DECAN   C533745   7.802   6.795   3.940  0.2579  0.4531  0.0932
 3376DECAN   C633746   7.840   6.650   3.907 -0.3650  0.3074  0.0088
 3376DECAN   C733747   7.733   6.544   3.940  0.0696 -0.3157 -0.5271
 3376DECAN   C833748   7.784   6.403   3.910  0.6071 -0.2477  0.0327
 3376DECAN   C933749   7.685   6.291   3.948  0.2626  0.0416 -0.0163
 3376DECAN  C1033750   7.730   6.145   3.931 -0.4958 -0.1758 -0.1836
 3377DECAN   C133751   3.635  11.240  11.496  0.1039 -0.3756 -0.8771
 3377DECAN   C233752   3.490   0.047  11.482  0.3065  0.4988  0.1210
 3377DECAN   C333753   3.403  11.212  11.382  0.2331  0.0727  0.5159
 3377DECAN   C433754   3.255   0.009  11.391  0.2789  0.3527  0.0473
 3377DECAN   C533755   3.146  11.165  11.327  0.2510 -0.2542  0.9138
 3377DECAN   C633756   2.996  11.181  11.356  0.1463 -0.0650  0.2695
 3377DECAN   C733757   2.900  11.098  11.268  0.7798 -0.0577 -0.4391
 3377DECAN   C833758   2.898  11.134  11.118 -0.7295  0.3540 -0.3294
 3377DECAN   C933759   3.038  11.124  11.056 -0.4269 -0.5112  0.4654
 3377DECAN  C1033760   3.056  11.179  10.913 -0.8702 -0.0936  0.5659
 3378DECAN   C133761   5.519   1.692  14.947 -0.1901 -0.2485 -0.2841
 3378DECAN   C233762   5.511   1.556  15.018  0.3980  0.0977  0.4580
 3378DECAN   C333763   5.479   1.447  14.914  0.0968  0.0256  0.6218
 3378DECAN   C433764   5.473   1.310  14.983 -0.1439 -0.4163 -0.2603
 3378DECAN   C533765   5.410   1.198  14.898  0.3360 -1.0094  0.1544
 3378DECAN   C633766   5.478   1.193  14.760 -0.3964 -0.0729 -0.2487
 3378DECAN   C733767   5.404   1.286  14.662 -0.0159 -0.0012 -0.4703
 3378DECAN   C833768   5.456   1.275  14.518  0.1689 -0.0614 -0.3979
 3378DECAN   C933769   5.352   1.308  14.410 -0.2428  0.0464  0.0299
 3378DECAN  C1033770   5.300   1.452  14.419  0.1678  0.2340 -0.5182
 3379DECAN   C133771   6.556   9.447   4.505 -0.3844 -0.0779  0.4920
 3379DECAN   C233772   6.579   9.577   4.584  0.0885  0.2107 -0.1179
 3379DECAN   C333773   6.713   9.651   4.566  0.2432 -0.0825 -0.1665
 3379DECAN   C433774   6.836   9.574   4.618 -0.1535 -0.2458  0.5429
 3379DECAN   C533775   6.974   9.619   4.568 -0.6422  0.2305 -0.3970
 3379DECAN   C633776   7.095   9.599   4.662 -0.5829  0.2356 -0.4714
 3379DECAN   C733777   7.230   9.650   4.608 -0.0886 -1.0451 -0.4751
 3379DECAN   C833778   7.353   9.608   4.690  0.3951 -0.0609 -0.6885
 3379DECAN   C933779   7.485   9.676   4.648  0.4700  0.4463  0.3274
 3379DECAN  C1033780   7.611   9.611   4.709  0.4232 -0.2148 -0.2687
 3380DECAN   C133781   9.557   0.143  10.479 -0.3384  0.0716 -0.3663
 3380DECAN   C233782   9.487   0.015  10.528  0.2177 -0.1036 -0.0216
 3380DECAN   C333783   9.450  11.164  10.412 -0.2230  0.0738 -0.0279
 3380DECAN   C433784   9.350  11.215  10.307  0.0084  0.5027 -0.0426
 3380DECAN   C533785   9.301  11.101  10.215 -0.3189  0.3364  0.3319
 3380DECAN   C633786   9.235  11.159  10.088  0.4748 -0.0108 -0.2485
 3380DECAN   C733787   9.304   0.013   9.992  0.3797 -0.0035 -0.3089
 3380DECAN   C833788   9.214   0.034   9.869  0.2439  0.8918 -0.0588
 3380DECAN   C933789   9.072   0.050   9.927 -0.0046  0.3809 -0.5189
 3380DECAN  C1033790   8.964   0.108   9.833  0.0103  0.5796 -0.4157
 3381DECAN   C133791   5.889   6.260   9.258 -0.6365  0.0022  0.3605
 3381DECAN   C233792   5.857   6.110   9.249 -0.6401  0.0223  0.0370
 3381DECAN   C333793   5.719   6.063   9.299 -0.6084  0.2348  0.3269
 3381DECAN   C433794   5.699   6.048   9.451 -0.0715  0.6979  0.4444
 3381DECAN   C533795   5.558   5.992   9.480  0.2964 -0.2842  0.3520
 3381DECAN   C633796   5.447   6.097   9.462  0.3160 -0.3294 -0.0312
 3381DECAN   C733797   5.463   6.224   9.547  0.4685 -0.4344  0.0977
 3381DECAN   C833798   5.334   6.309   9.549  0.7900  0.0834 -0.7525
 3381DECAN   C933799   5.337   6.444   9.621 -0.2285 -0.1969 -0.1632
 3381DECAN  C1033800   5.203   6.518   9.610 -0.1745 -0.0532  0.1189
 3382DECAN   C133801   8.174  10.784   7.193  0.2708  0.2037  0.1046
 3382DECAN   C233802   8.131  10.816   7.049 -0.5684  0.4453  0.4046
 3382DECAN   C333803   8.010  10.911   7.055 -0.6334  0.4147 -0.3385
 3382DECAN   C433804   7.882  10.839   7.101 -0.0766 -0.8265 -0.6867
 3382DECAN   C533805   7.918  10.736   7.210  0.0374 -0.0999 -0.0290
 3382DECAN   C633806   7.790  10.656   7.240 -0.1912  0.3013  0.0680
 3382DECAN   C733807   7.680  10.742   7.307 -0.4232  0.4910 -0.5481
 3382DECAN   C833808   7.562  10.659   7.360 -0.0908  0.4863  0.1940
 3382DECAN   C933809   7.438  10.749   7.374 -0.2075  0.3450  0.0762
 3382DECAN  C1033810   7.314  10.678   7.431 -0.0752  0.2951  0.2990
 3383DECAN   C133811   6.058   3.802  13.904  0.0287 -0.2999 -0.4235
 3383DECAN   C233812   6.063   3.955  13.925  0.2048 -0.3713  0.0663
 3383DECAN   C333813   5.972   4.004  14.039  0.2667  0.0512 -0.0674
 3383DECAN   C433814   5.991   4.151  14.083 -0.1931  0.0025  0.3046
 3383DECAN   C533815   5.873   4.209  14.162 -0.7834  0.0156 -0.5812
 3383DECAN   C633816   5.907   4.356  14.193  0.0380 -0.2094 -0.3929
 3383DECAN   C733817   6.052   4.369  14.244 -0.0034  0.0903 -0.3486
 3383DECAN   C833818   6.102   4.511  14.276 -0.2622  0.0156  0.3998
 3383DECAN   C933819   6.237   4.518  14.351 -0.2267 -0.0950  0.3471
 3383DECAN  C1033820   6.358   4.452  14.282 -0.3168  0.0496  0.0487
 3384DECAN   C133821   1.823   6.681   5.904 -0.5216 -0.6050  0.1772
 3384DECAN   C233822   1.762   6.814   5.854  0.3238 -0.1529  0.3312
 3384DECAN   C333823   1.827   6.865   5.724 -0.0523 -0.4093  0.0394
 3384DECAN   C433824   1.978   6.891   5.740  0.0017 -0.5115 -0.3077
 3384DECAN   C533825   2.060   6.949   5.622  0.0373  0.5086  0.2079
 3384DECAN   C633826   2.191   7.008   5.676  0.3135 -0.3394  0.4921
 3384DECAN   C733827   2.316   6.930   5.631 -0.0383 -0.2828 -0.6312
 3384DECAN   C833828   2.442   6.974   5.708 -0.0939 -0.2818 -0.5402
 3384DECAN   C933829   2.575   6.923   5.649  0.2991  0.3326 -0.1850
 3384DECAN  C1033830   2.694   6.942   5.745  0.4180  0.5852 -0.3790
 3385DECAN   C133831   7.933   7.086  13.033 -0.3679  0.4765 -0.9728
 3385DECAN   C233832   8.027   7.086  12.911  0.1707 -0.0858 -0.5609
 3385DECAN   C333833   8.112   7.214  12.911  0.0100  0.0233 -0.1967
 3385DECAN   C433834   8.024   7.339  12.895 -0.1733 -0.0084  0.5328
 3385DECAN   C533835   8.088   7.476  12.928  0.1494 -0.0530  0.1028
 3385DECAN   C633836   7.988   7.588  12.964  0.3896  0.0682  0.3889
 3385DECAN   C733837   8.048   7.723  13.007  0.8702 -0.0707  0.1732
 3385DECAN   C833838   7.946   7.839  13.002  0.2980 -0.5981 -0.8208
 3385DECAN   C933839   8.027   7.970  13.013  0.2814 -0.6896  0.5811
 3385DECAN  C1033840   8.052   8.010  13.159  0.0058 -0.0146  0.4485
 3386DECAN   C133841   8.026  10.593  14.959 -0.0921  0.0780 -0.0510
 3386DECAN   C233842   7.920  10.489  14.920 -0.2508  0.2146  0.0166
 3386DECAN   C333843   7.792  10.553  14.863 -0.5319 -0.1632  0.2166
 3386DECAN   C433844   7.690  10.439  14.842 -0.2030 -0.4579  0.1952
 3386DECAN   C533845   7.737  10.311  14.772 -0.1251 -0.1709 -0.2792
 3386DECAN   C633846   7.621  10.215  14.740 -0.2045 -0.3431  0.5068
 3386DECAN   C733847   7.680  10.104  14.651  0.0030  0.2583 -0.1136
 3386DECAN   C833848   7.725  10.164  14.516  0.3501 -0.1327 -0.1740
 3386DECAN   C933849   7.648  10.135  14.386 -0.0529 -0.4562  0.1373
 3386DECAN  C1033850   7.501  10.182  14.383 -0.1170 -0.6663 -0.0013
 3387DECAN   C133851   8.156   7.731  10.868  0.7040  0.0892  0.1142
 3387DECAN   C233852   8.147   7.855  10.776 -0.2302 -0.0619 -0.0062
 3387DECAN   C333853   8.051   7.832  10.658 -0.4392 -0.0424  0.1605
 3387DECAN   C433854   8.032   7.951  10.563  0.1232  0.1577  0.2941
 3387DECAN   C533855   7.953   8.074  10.610 -0.0882  0.0653  0.1827
 3387DECAN   C633856   7.933   8.183  10.503  0.6734 -0.4310 -0.4762
 3387DECAN   C733857   8.048   8.213  10.405  0.3241  0.5911 -0.5924
 3387DECAN   C833858   8.012   8.343  10.332  0.1247  0.6101 -0.4601
 3387DECAN   C933859   8.110   8.380  10.219  0.3497 -0.4707 -0.6319
 3387DECAN  C1033860   8.044   8.499  10.146  0.2424 -0.0426  0.1387
 3388DECAN   C133861  10.875   0.822   7.812 -0.3074  0.0379  0.0802
 3388DECAN   C233862  10.886   0.947   7.901 -0.6246  0.0158  0.1524
 3388DECAN   C333863  10.904   0.934   8.053 -0.4338  0.0064  0.1285
 3388DECAN   C433864  10.929   1.066   8.127 -0.2507  0.0643 -0.0345
 3388DECAN   C533865  10.993   1.031   8.263 -0.2124 -0.1603 -0.1101
 3388DECAN   C633866  11.019   1.158   8.347  0.7320 -0.2327 -0.2740
 3388DECAN   C733867  10.908   1.202   8.445  0.5992  0.4831 -0.7444
 3388DECAN   C833868  10.957   1.287   8.564 -0.4530  0.4914 -0.3081
 3388DECAN   C933869  11.014   1.203   8.680  0.3672  0.6585 -0.5886
 3388DECAN  C1033870  11.159   1.154   8.657  0.3569  0.3332  0.0237
 3389DECAN   C133871   6.769   4.064  12.945  0.5825 -0.5294  0.6691
 3389DECAN   C233872   6.711   4.195  13.002 -0.0348 -0.4214 -0.1903
 3389DECAN   C333873   6.813   4.309  13.014 -0.0282 -0.4578  0.1126
 3389DECAN   C433874   6.911   4.281  13.130  0.0639  0.6066  0.2998
 3389DECAN   C533875   7.011   4.395  13.157  0.2698  0.3726  0.5255
 3389DECAN   C633876   7.142   4.345  13.222  0.3697  0.1546  0.1666
 3389DECAN   C733877   7.198   4.217  13.159 -0.3733  0.0400 -0.2780
 3389DECAN   C833878   7.341   4.177  13.201 -0.3888  0.4551  0.1766
 3389DECAN   C933879   7.384   4.040  13.144  0.3449  0.5757  0.4295
 3389DECAN  C1033880   7.530   4.004  13.175  0.4817  0.8099  0.0555
 3390DECAN   C133881   6.938   8.727  13.484  0.4277  0.0788  0.3146
 3390DECAN   C233882   7.021   8.767  13.361 -0.5809  0.3117 -0.2966
 3390DECAN   C333883   6.977   8.906  13.310  0.2513  0.5011 -0.5034
 3390DECAN   C433884   6.828   8.924  13.278  0.2196  0.0149 -0.6404
 3390DECAN   C533885   6.797   9.066  13.225  0.0828  0.4655  0.6090
 3390DECAN   C633886   6.651   9.111  13.205 -0.0694  0.0061  0.6592
 3390DECAN   C733887   6.623   9.245  13.134 -0.2115 -0.1679  0.3800
 3390DECAN   C833888   6.480   9.260  13.081 -0.1393  0.0081  0.2361
 3390DECAN   C933889   6.373   9.225  13.186 -0.3492  0.2189  0.0968
 3390DECAN  C1033890   6.230   9.263  13.144 -0.3399  0.7627  0.5455
 3391DECAN   C133891   8.700   0.491   4.911 -0.4712  0.1431  0.1313
 3391DECAN   C233892   8.759   0.614   4.982 -0.4452 -0.2715  0.8444
 3391DECAN   C333893   8.653   0.725   4.994 -0.0580  0.1475  0.4301
 3391DECAN   C433894   8.708   0.845   5.073 -0.1997  0.1472  0.5287
 3391DECAN   C533895   8.611   0.962   5.045 -0.2243  0.1025  0.4271
 3391DECAN   C633896   8.660   1.095   5.105 -0.1206  0.2497  0.0229
 3391DECAN   C733897   8.667   1.078   5.258  0.2974 -0.4215 -0.0631
 3391DECAN   C833898   8.724   1.206   5.323 -0.2795 -0.0233 -0.3387
 3391DECAN   C933899   8.613   1.313   5.323 -0.3981 -0.1360  0.6188
 3391DECAN  C1033900   8.657   1.436   5.403  0.2326  0.0788 -0.0473
 3392DECAN   C133901   1.310   4.700  12.807 -0.1813 -0.3273 -0.2537
 3392DECAN   C233902   1.306   4.822  12.901  0.0113 -0.5341  0.0262
 3392DECAN   C333903   1.414   4.821  13.011  0.0978 -0.1659 -0.0550
 3392DECAN   C433904   1.406   4.937  13.112 -0.3067 -0.5030  0.3037
 3392DECAN   C533905   1.436   5.072  13.044 -0.2940 -0.3880  0.5399
 3392DECAN   C633906   1.429   5.184  13.150  1.0625 -0.3165  0.5656
 3392DECAN   C733907   1.406   5.308  13.061 -0.0548 -0.5888  0.4609
 3392DECAN   C833908   1.440   5.444  13.125  0.7469 -0.4752 -0.1835
 3392DECAN   C933909   1.455   5.569  13.036 -0.0480  0.0389  0.3897
 3392DECAN  C1033910   1.449   5.706  13.105 -0.5375  0.3156 -0.1877
 3393DECAN   C133911   8.321   3.123   6.494  0.9317 -0.4459 -0.2434
 3393DECAN   C233912   8.362   3.269   6.471 -0.0312 -0.1984 -0.4356
 3393DECAN   C333913   8.346   3.355   6.598  0.6622 -0.1664 -0.3657
 3393DECAN   C433914   8.456   3.332   6.703  0.3243  0.5395  0.1541
 3393DECAN   C533915   8.449   3.408   6.836  0.2003  0.8748 -0.0433
 3393DECAN   C633916   8.580   3.403   6.918  0.3998 -0.3061 -0.4216
 3393DECAN   C733917   8.615   3.255   6.939  0.1639 -0.3145 -0.0817
 3393DECAN   C833918   8.763   3.226   6.972  0.2628  0.1782 -0.0875
 3393DECAN   C933919   8.788   3.075   6.993 -0.2082  0.1732  0.4878
 3393DECAN  C1033920   8.689   3.001   7.084  0.0854 -0.2721  0.4498
 3394DECAN   C133921   6.495   6.041  10.827  0.2743 -0.1438 -0.4452
 3394DECAN   C233922   6.552   5.991  10.693 -0.3862 -0.3627 -0.6484
 3394DECAN   C333923   6.683   6.056  10.642 -0.3272  0.2880  0.2916
 3394DECAN   C433924   6.816   6.013  10.705 -0.1804 -0.4506 -0.4897
 3394DECAN   C533925   6.934   6.069  10.623  0.3753  0.2846  0.7823
 3394DECAN   C633926   7.076   6.018  10.653  0.4589  0.0847  0.0468
 3394DECAN   C733927   7.201   6.091  10.599  0.3999  0.3327  0.2462
 3394DECAN   C833928   7.338   6.055  10.659  0.2351  0.1376  0.5096
 3394DECAN   C933929   7.373   5.905  10.668  0.0253  0.1053  0.8060
 3394DECAN  C1033930   7.525   5.888  10.691  0.2106  0.1021 -0.3509
 3395DECAN   C133931   4.978   0.633   5.887  0.4227  0.0823 -0.1669
 3395DECAN   C233932   4.871   0.566   5.975 -0.2883  0.5307 -0.6730
 3395DECAN   C333933   4.844   0.635   6.110  0.1243 -0.2017 -0.2048
 3395DECAN   C433934   4.697   0.615   6.151  0.2619 -0.7504  0.0251
 3395DECAN   C533935   4.653   0.657   6.292  0.5132 -0.1762 -0.0637
 3395DECAN   C633936   4.500   0.669   6.286  0.4447 -0.1296  1.3968
 3395DECAN   C733937   4.423   0.716   6.411 -0.5108  0.0641  0.7504
 3395DECAN   C833938   4.274   0.725   6.375 -0.2642  0.1134 -0.2814
 3395DECAN   C933939   4.186   0.763   6.495  0.1253  0.1206  0.0018
 3395DECAN  C1033940   4.046   0.799   6.442 -0.0687  0.1913  0.5490
 3396DECAN   C133941   6.501   5.127   9.781 -0.2269  0.0565  0.2195
 3396DECAN   C233942   6.357   5.119   9.725 -0.0279 -0.3704 -0.2447
 3396DECAN   C333943   6.319   5.241   9.639  0.4046  0.1962  0.3554
 3396DECAN   C433944   6.329   5.379   9.707 -0.0788  0.4378 -0.0566
 3396DECAN   C533945   6.315   5.507   9.624  0.0343  0.4735 -0.0213
 3396DECAN   C633946   6.362   5.632   9.701  1.0453  0.0689  0.0203
 3396DECAN   C733947   6.274   5.676   9.819 -0.0530 -0.0568 -0.7379
 3396DECAN   C833948   6.298   5.806   9.898  0.4926 -0.6562  0.0971
 3396DECAN   C933949   6.186   5.841   9.998  0.3914 -0.3671 -0.1160
 3396DECAN  C1033950   6.210   5.981  10.057 -0.6675 -0.3173  0.2108
 3397DECAN   C133951   3.640   5.979  12.909  0.6468  0.5145  0.1643
 3397DECAN   C233952   3.710   5.857  12.848  0.8597  0.7193 -0.0019
 3397DECAN   C333953   3.784   5.776  12.955 -0.5881 -0.0500  0.4427
 3397DECAN   C433954   3.832   5.635  12.916  0.1394  0.1963  0.4265
 3397DECAN   C533955   3.947   5.635  12.814 -0.4977 -0.4485 -0.3069
 3397DECAN   C633956   4.027   5.508  12.780 -0.3914 -0.4170 -0.1750
 3397DECAN   C733957   4.110   5.531  12.652 -0.0375 -0.1994  0.0924
 3397DECAN   C833958   4.173   5.407  12.585  0.5297  0.3904 -0.4761
 3397DECAN   C933959   4.259   5.333  12.690  1.2869  0.9757 -0.6680
 3397DECAN  C1033960   4.355   5.218  12.656  0.4709  0.0336  0.1610
 3398DECAN   C133961   6.318   1.031   4.835 -0.0940 -0.1558 -0.2437
 3398DECAN   C233962   6.427   1.066   4.732 -0.2267  0.1898 -0.2689
 3398DECAN   C333963   6.388   1.189   4.648  0.1604  0.3172 -0.2623
 3398DECAN   C433964   6.274   1.170   4.547  0.2490  0.1393 -0.3293
 3398DECAN   C533965   6.295   1.045   4.460  0.0067 -0.0729 -0.0853
 3398DECAN   C633966   6.171   1.021   4.372 -0.0542  0.4750 -0.1495
 3398DECAN   C733967   6.037   1.011   4.447 -0.2289  0.5165 -0.4578
 3398DECAN   C833968   5.996   1.138   4.524 -0.1266  0.1443  0.2149
 3398DECAN   C933969   5.878   1.122   4.622 -0.3976  0.1090 -0.1132
 3398DECAN  C1033970   5.804   1.249   4.669 -0.1841  0.2460 -0.1434
 3399DECAN   C133971   1.204   2.493   9.293 -0.2039 -0.1640  0.7912
 3399DECAN   C233972   1.303   2.597   9.348  0.2095  0.2007 -0.6111
 3399DECAN   C333973   1.441   2.541   9.384  0.0151  0.4931  0.6227
 3399DECAN   C433974   1.543   2.643   9.439  0.6058 -0.0735  0.5907
 3399DECAN   C533975   1.541   2.686   9.587 -0.2653  0.4534  0.4311
 3399DECAN   C633976   1.604   2.819   9.633  0.2602  0.5192 -0.4485
 3399DECAN   C733977   1.603   2.822   9.787  0.1824  0.4672 -0.4476
 3399DECAN   C833978   1.619   2.951   9.871 -0.0636  0.0703  0.2095
 3399DECAN   C933979   1.638   2.926  10.022  0.1630 -0.1817  0.1403
 3399DECAN  C1033980   1.515   2.874  10.100  0.3106 -0.2387  0.3365
 3400DECAN   C133981   1.479   9.681  12.424 -0.4986  0.2474  0.2812
 3400DECAN   C233982   1.527   9.735  12.560  0.4812  0.1859 -0.0338
 3400DECAN   C333983   1.509   9.888  12.573 -0.2306  0.0991  0.0671
 3400DECAN   C433984   1.560   9.950  12.705 -0.3905 -0.4414  0.3865
 3400DECAN   C533985   1.534  10.102  12.705 -0.2028 -0.4045 -0.1920
 3400DECAN   C633986   1.580  10.178  12.831 -0.3658 -0.2547 -0.2227
 3400DECAN   C733987   1.536  10.325  12.837 -0.0371 -0.1833  0.5521
 3400DECAN   C833988   1.559  10.398  12.703  0.2509  0.1291  0.7731
 3400DECAN   C933989   1.512  10.545  12.700 -0.0759  0.0104 -0.4545
 3400DECAN  C1033990   1.565  10.634  12.587  0.3692 -0.1405 -0.3674
 3401DECAN   C133991   4.058   9.106   7.981  0.2271  0.4425 -0.0644
 3401DECAN   C233992   4.059   9.086   8.134 -0.1719 -0.4560 -0.1708
 3401DECAN   C333993   4.195   9.101   8.204 -0.3939 -0.8312  0.3532
 3401DECAN   C433994   4.196   9.108   8.357 -0.2568  0.2461  0.3109
 3401DECAN   C533995   4.120   8.986   8.411 -0.6697  0.4054  0.0913
 3401DECAN   C633996   4.185   8.863   8.477  0.0926  0.8527  0.1788
 3401DECAN   C733997   4.101   8.787   8.581 -0.2249  0.1474 -0.5743
 3401DECAN   C833998   3.990   8.717   8.502 -0.3643  0.4145 -0.6169
 3401DECAN   C933999   3.914   8.610   8.583 -0.2146  0.5554 -0.2908
 3401DECAN  C1034000   3.834   8.652   8.708  0.4072 -0.1031  0.3379
 3402DECAN   C134001   3.189   2.655  13.030 -0.6442 -0.2157  0.2257
 3402DECAN   C234002   3.334   2.605  13.016 -0.6191 -0.1775  0.3424
 3402DECAN   C334003   3.427   2.696  12.933 -0.6241 -0.4020  0.0876
 3402DECAN   C434004   3.542   2.619  12.865 -0.0612 -0.0148  0.5900
 3402DECAN   C534005   3.498   2.531  12.747  0.4918  0.6054 -0.0858
 3402DECAN   C634006   3.610   2.526  12.641  0.3039 -0.5735 -0.2424
 3402DECAN   C734007   3.572   2.467  12.504  0.0066  0.2787 -0.5314
 3402DECAN   C834008   3.684   2.486  12.400  0.5430  0.3695  0.0549
 3402DECAN   C934009   3.647   2.439  12.258 -0.3642 -0.4469  0.5433
 3402DECAN  C1034010   3.554   2.536  12.183  0.4100 -0.2302 -0.1551
 3403DECAN   C134011   8.248   4.334   5.719 -0.5025  0.4812 -0.1827
 3403DECAN   C234012   8.260   4.405   5.583 -0.5585  0.1928 -0.3390
 3403DECAN   C334013   8.147   4.350   5.494 -0.4538 -0.5311 -0.0329
 3403DECAN   C434014   8.006   4.404   5.523 -0.2652  0.0134 -0.1141
 3403DECAN   C534015   7.887   4.363   5.434  0.1819 -0.4780 -0.4888
 3403DECAN   C634016   7.798   4.478   5.385  0.5318 -0.0146 -0.0474
 3403DECAN   C734017   7.670   4.428   5.315  0.2478  0.0952  0.3881
 3403DECAN   C834018   7.589   4.531   5.234 -0.0623 -0.1900  0.3295
 3403DECAN   C934019   7.454   4.477   5.184  0.0793 -0.1133 -0.1417
 3403DECAN  C1034020   7.344   4.451   5.289 -0.1535  0.0454 -0.3448
 3404DECAN   C134021   3.093   6.402  10.269  0.4516  0.3709 -0.4983
 3404DECAN   C234022   3.009   6.328  10.163 -0.4016  0.4660  0.0986
 3404DECAN   C334023   2.866   6.386  10.161 -0.6150 -0.0616 -0.1079
 3404DECAN   C434024   2.876   6.538  10.138  0.5022 -0.1312 -0.1695
 3404DECAN   C534025   2.734   6.590  10.171  0.2531 -0.7392 -0.2657
 3404DECAN   C634026   2.701   6.605  10.321  0.5588 -0.0579 -0.2661
 3404DECAN   C734027   2.572   6.684  10.349  0.3700 -0.2973 -0.4648
 3404DECAN   C834028   2.531   6.718  10.493  0.3016  0.3453 -0.6341
 3404DECAN   C934029   2.631   6.785  10.590 -0.0833  0.2050 -0.1312
 3404DECAN  C1034030   2.571   6.799  10.730 -0.4099 -0.0871 -0.2402
 3405DECAN   C134031   6.474   9.156  10.288 -0.1844  0.1298  0.2039
 3405DECAN   C234032   6.529   9.127  10.147 -0.2679  0.4336  0.1075
 3405DECAN   C334033   6.672   9.183  10.136  0.0406 -0.3085  0.3237
 3405DECAN   C434034   6.738   9.169   9.997 -0.1651 -0.0238  0.1980
 3405DECAN   C534035   6.726   9.031   9.932  0.1334  0.3485 -0.6568
 3405DECAN   C634036   6.781   9.005   9.790  0.5829  0.1398 -0.4468
 3405DECAN   C734037   6.761   8.863   9.733  0.2457 -0.1343  0.3276
 3405DECAN   C834038   6.848   8.752   9.795 -0.4359 -0.5272  0.5862
 3405DECAN   C934039   6.855   8.614   9.728 -0.2655 -0.1257 -0.2419
 3405DECAN  C1034040   6.940   8.516   9.811 -0.2220 -0.0909 -0.2455
 3406DECAN   C134041   1.826   7.478  14.472 -0.0319  0.4903 -0.2725
 3406DECAN   C234042   1.695   7.557  14.489 -0.1309  0.1241  0.7882
 3406DECAN   C334043   1.702   7.684  14.576  0.2018  0.7333 -0.1049
 3406DECAN   C434044   1.578   7.710  14.664  0.1079 -0.2913  0.0791
 3406DECAN   C534045   1.580   7.834  14.755 -0.0545 -0.4053  0.2362
 3406DECAN   C634046   1.699   7.835  14.853  0.2959  0.4656 -0.1901
 3406DECAN   C734047   1.713   7.972  14.922 -0.0584  0.5028 -0.1877
 3406DECAN   C834048   1.824   7.970  15.029 -0.1957 -0.0081 -0.0533
 3406DECAN   C934049   1.813   7.866  15.142  0.1416  0.2903  0.2550
 3406DECAN  C1034050   1.820   7.719  15.097  0.2221  0.2800  0.2999
 3407DECAN   C134051   3.703  10.912  13.411 -0.0059 -0.0663 -0.2869
 3407DECAN   C234052   3.760  11.051  13.444 -0.1985 -0.0113 -0.1789
 3407DECAN   C334053   3.668  11.169  13.478 -0.0630  0.0779 -0.1181
 3407DECAN   C434054   3.575  11.202  13.360  0.0757 -0.0356 -0.2584
 3407DECAN   C534055   3.451  11.112  13.341 -0.1262  0.1472  0.1772
 3407DECAN   C634056   3.352  11.187  13.251  0.3811  0.6905  0.0655
 3407DECAN   C734057   3.249  11.101  13.175  0.6364  0.0376  0.4485
 3407DECAN   C834058   3.128  11.153  13.095  0.5152 -0.0791  0.5555
 3407DECAN   C934059   2.995  11.178  13.170  0.1566  0.0627 -0.1177
 3407DECAN  C1034060   2.875  11.198  13.076  0.0926  0.2978  0.0134
 3408DECAN   C134061  10.161   4.772  13.314  0.2435  0.2476  1.1914
 3408DECAN   C234062  10.217   4.650  13.389 -0.0358 -0.3288  0.4798
 3408DECAN   C334063  10.129   4.528  13.422 -0.6916 -0.0806 -0.3281
 3408DECAN   C434064  10.207   4.397  13.444  0.0783  0.4025 -0.1237
 3408DECAN   C534065  10.289   4.382  13.573 -0.0226  0.7613 -0.0167
 3408DECAN   C634066  10.421   4.304  13.556 -0.2494  0.2451  0.5212
 3408DECAN   C734067  10.516   4.390  13.470  0.1310 -0.1489  0.5449
 3408DECAN   C834068  10.585   4.505  13.545 -0.1817  0.5589 -0.2350
 3408DECAN   C934069  10.693   4.581  13.465  0.2302  0.3633  0.1258
 3408DECAN  C1034070  10.746   4.706  13.539 -0.1537  0.3601  0.4131
 3409DECAN   C134071   9.162  10.457   6.558  0.8717  1.0448  0.2052
 3409DECAN   C234072   9.036  10.438   6.644  0.5974  0.2178 -0.3577
 3409DECAN   C334073   9.059  10.429   6.796 -0.4707 -0.2802 -0.2148
 3409DECAN   C434074   8.935  10.367   6.863 -0.3526  0.0377  0.3058
 3409DECAN   C534075   8.809  10.455   6.852 -0.1104  0.3135 -0.3029
 3409DECAN   C634076   8.683  10.383   6.903  0.3161  0.2280  0.6330
 3409DECAN   C734077   8.595  10.494   6.964  0.4385  0.8939 -0.3928
 3409DECAN   C834078   8.577  10.611   6.865  0.4129  0.7128 -0.6045
 3409DECAN   C934079   8.464  10.711   6.898 -0.6295 -0.5683 -0.1810
 3409DECAN  C1034080   8.451  10.811   6.782  0.3189 -0.1416  0.0642
 3410DECAN   C134081   1.678  11.117  10.150  0.8464  0.0254  0.1259
 3410DECAN   C234082   1.621  11.057  10.280 -0.0699 -0.6484 -0.5715
 3410DECAN   C334083   1.492  11.125  10.331  0.4847 -0.5400  0.7288
 3410DECAN   C434084   1.513   0.031  10.359 -0.1739 -0.3690  0.3258
 3410DECAN   C534085   1.376   0.088  10.398 -0.0547  0.3112 -0.2273
 3410DECAN   C634086   1.316   0.010  10.516  0.1866  0.7908  0.2198
 3410DECAN   C734087   1.188   0.087  10.555 -0.2600  0.1825 -0.0142
 3410DECAN   C834088   1.111   0.036  10.677 -0.8551 -0.0561 -0.4865
 3410DECAN   C934089   1.065  11.134  10.657 -0.6904 -0.1272 -0.3472
 3410DECAN  C1034090   0.987  11.089  10.782 -0.5962  0.7624  0.0461
 3411DECAN   C134091   5.346   7.131   6.567 -0.1423  0.2884 -0.3301
 3411DECAN   C234092   5.358   7.126   6.414  0.1462 -0.0048 -0.2995
 3411DECAN   C334093   5.276   7.247   6.365 -0.0742  0.2727  0.7212
 3411DECAN   C434094   5.129   7.238   6.410 -0.1723  0.2554  0.3990
 3411DECAN   C534095   5.029   7.331   6.338  0.1256 -0.0027 -0.3570
 3411DECAN   C634096   5.076   7.356   6.193  0.6083  0.7552 -0.0722
 3411DECAN   C734097   4.976   7.430   6.102  0.0461 -0.3463 -0.3588
 3411DECAN   C834098   5.042   7.536   6.011 -0.2681 -0.1248 -0.3279
 3411DECAN   C934099   5.153   7.490   5.915  0.2939  0.0309  0.2349
 3411DECAN  C1034100   5.288   7.446   5.973  0.3743 -0.0942 -0.0469
 3412DECAN   C134101   3.145   2.396  14.202  0.4909 -0.2261  0.8214
 3412DECAN   C234102   3.293   2.364  14.227  0.5184 -0.2032  0.6888
 3412DECAN   C334103   3.314   2.222  14.282 -0.5143 -0.5435  0.2189
 3412DECAN   C434104   3.291   2.097  14.194  0.5200 -0.2899 -0.4332
 3412DECAN   C534105   3.293   1.978  14.292 -0.0680  0.1858  0.1702
 3412DECAN   C634106   3.431   1.951  14.354 -0.1010 -0.1418  0.1034
 3412DECAN   C734107   3.547   1.943  14.252 -0.2885 -0.1675 -0.1080
 3412DECAN   C834108   3.685   1.947  14.319 -0.1571 -0.3291 -0.3690
 3412DECAN   C934109   3.710   1.852  14.437  0.0028  0.0155 -0.1254
 3412DECAN  C1034110   3.734   1.705  14.396 -0.4638 -0.2727  0.6124
 3413DECAN   C134111   5.900   4.100   6.632  0.3138  0.0762  0.4862
 3413DECAN   C234112   5.895   3.966   6.556 -0.0436  0.3985 -0.0666
 3413DECAN   C334113   6.025   3.883   6.559 -0.1705  0.2077  0.1527
 3413DECAN   C434114   6.139   3.937   6.471 -0.1802 -0.2526 -0.1426
 3413DECAN   C534115   6.266   3.851   6.488  0.0619  0.0654 -0.3382
 3413DECAN   C634116   6.336   3.856   6.625  0.3839 -0.1693 -0.4940
 3413DECAN   C734117   6.353   3.997   6.685  0.3620 -0.1441 -0.5470
 3413DECAN   C834118   6.404   4.010   6.830  0.0024 -0.0046 -0.4330
 3413DECAN   C934119   6.381   4.154   6.878 -0.1802 -0.0793 -0.2921
 3413DECAN  C1034120   6.423   4.204   7.017  0.0309 -1.2043  0.0532
 3414DECAN   C134121   7.533   0.453   8.886  0.1213 -0.3593  0.1079
 3414DECAN   C234122   7.398   0.523   8.862  0.3499  0.2255  0.5027
 3414DECAN   C334123   7.298   0.533   8.978 -0.3121 -0.4266  0.0017
 3414DECAN   C434124   7.160   0.590   8.940 -0.1997  0.2200  0.5466
 3414DECAN   C534125   7.156   0.698   8.830  0.0715 -0.3680 -0.0472
 3414DECAN   C634126   7.018   0.758   8.797  0.3339  0.3639  0.1590
 3414DECAN   C734127   7.007   0.845   8.671 -0.1538  0.3458  0.1875
 3414DECAN   C834128   6.871   0.899   8.621 -0.2206 -0.0567 -0.0705
 3414DECAN   C934129   6.902   0.988   8.500 -0.0298 -0.4138 -0.2863
 3414DECAN  C1034130   6.777   1.067   8.455 -0.1735  0.0499  0.8877
 3415DECAN   C134131   6.185   2.130   8.603  0.3454  0.3819  0.7270
 3415DECAN   C234132   6.144   2.074   8.741 -0.4920 -0.4247  0.1634
 3415DECAN   C334133   6.027   2.141   8.814  0.0656  0.4081  0.3048
 3415DECAN   C434134   6.077   2.275   8.874  0.1521  0.3825  0.2912
 3415DECAN   C534135   5.961   2.375   8.889  0.0444  0.2371  0.4389
 3415DECAN   C634136   5.906   2.432   8.757  0.7750 -0.3896 -0.1419
 3415DECAN   C734137   5.838   2.320   8.676 -0.0118 -0.0896  0.1034
 3415DECAN   C834138   5.711   2.381   8.614  0.0860 -0.2101 -0.2143
 3415DECAN   C934139   5.617   2.450   8.714 -0.2765  0.6593 -1.1326
 3415DECAN  C1034140   5.663   2.589   8.762 -0.7813  0.5999 -0.4458
 3416DECAN   C134141   7.244   4.789   5.570  0.2008 -0.2302  0.0390
 3416DECAN   C234142   7.376   4.867   5.553 -0.3360  0.6538 -0.1540
 3416DECAN   C334143   7.388   4.943   5.420  0.1481 -0.1785 -0.5890
 3416DECAN   C434144   7.522   5.019   5.410  0.2303 -0.2189  0.1280
 3416DECAN   C534145   7.545   5.103   5.283 -0.3594  0.7304  0.6418
 3416DECAN   C634146   7.550   5.005   5.164  0.1088 -0.0710  1.3118
 3416DECAN   C734147   7.682   4.930   5.135  0.1804  0.5444 -0.0126
 3416DECAN   C834148   7.679   4.831   5.017 -0.0123  0.3220  0.1794
 3416DECAN   C934149   7.817   4.770   4.987 -0.2099 -0.2261  0.3722
 3416DECAN  C1034150   7.827   4.676   4.865  0.4040  0.1989  0.0908
 3417DECAN   C134151   5.527   9.072  11.381  0.5575  0.2375 -0.4921
 3417DECAN   C234152   5.590   8.997  11.262  0.1168 -0.6040 -0.1994
 3417DECAN   C334153   5.577   9.069  11.126 -0.3996 -0.1142  0.1039
 3417DECAN   C434154   5.695   9.044  11.031 -0.1454  0.4535  0.2693
 3417DECAN   C534155   5.743   8.900  11.006  0.0860  0.6167 -0.2384
 3417DECAN   C634156   5.881   8.883  10.939  0.1346 -0.0433  0.0255
 3417DECAN   C734157   5.927   8.738  10.914 -0.1434 -0.1602  0.1833
 3417DECAN   C834158   6.051   8.723  10.823 -0.0093 -0.2140  0.3713
 3417DECAN   C934159   6.160   8.825  10.858 -0.2826 -0.0647  0.8067
 3417DECAN  C1034160   6.138   8.893  10.994 -0.2467  0.3063  0.6294
 3418DECAN   C134161  10.502  11.204   8.078 -0.0569 -0.0819 -0.2494
 3418DECAN   C234162  10.441  11.092   8.165  0.6521 -0.2508  0.0444
 3418DECAN   C334163  10.442  11.114   8.317  0.7170  0.2447 -0.0259
 3418DECAN   C434164  10.422   0.020   8.344 -0.0629 -0.0414  1.0134
 3418DECAN   C534165  10.278   0.075   8.341  0.1948  0.5929 -0.1162
 3418DECAN   C634166  10.250   0.208   8.414  0.3894  0.0189  1.0177
 3418DECAN   C734167  10.135   0.287   8.350  0.7360 -0.1167  0.2187
 3418DECAN   C834168  10.113   0.434   8.390  0.0507 -0.2712  0.4316
 3418DECAN   C934169   9.974   0.487   8.350  0.2642 -0.0446 -0.0264
 3418DECAN  C1034170   9.935   0.627   8.401 -0.0728  0.0130 -0.4380
 3419DECAN   C134171   5.588   8.800   8.991 -0.1968 -0.0278  0.4094
 3419DECAN   C234172   5.576   8.648   9.011  0.3282 -0.1487 -0.1740
 3419DECAN   C334173   5.487   8.585   8.902 -0.7438  0.2055  0.4770
 3419DECAN   C434174   5.448   8.440   8.937 -0.0013 -0.0178  0.4150
 3419DECAN   C534175   5.339   8.372   8.852  0.1278  0.0392  0.2040
 3419DECAN   C634176   5.369   8.348   8.703 -0.3392 -0.2336  0.1509
 3419DECAN   C734177   5.241   8.309   8.627 -0.3027  0.2610 -0.1617
 3419DECAN   C834178   5.245   8.243   8.488  0.0873 -0.0156 -0.0197
 3419DECAN   C934179   5.370   8.157   8.462 -0.1153 -0.2520 -0.2048
 3419DECAN  C1034180   5.384   8.117   8.314 -0.2832  0.4598 -0.4146
 3420DECAN   C134181   6.872   2.572  14.242 -0.0298 -0.0722  0.4801
 3420DECAN   C234182   6.999   2.575  14.155 -0.3360  0.2218  0.0368
 3420DECAN   C334183   6.961   2.653  14.028  0.0073  0.4590  0.0777
 3420DECAN   C434184   7.075   2.665  13.926  0.2665 -0.0911  0.3007
 3420DECAN   C534185   7.069   2.802  13.855 -0.1029 -0.2532  0.0170
 3420DECAN   C634186   7.156   2.821  13.729 -0.1660  0.1608  0.0347
 3420DECAN   C734187   7.148   2.965  13.677  0.0273  0.1260 -0.0896
 3420DECAN   C834188   7.200   2.991  13.534 -0.2281  0.1082 -0.1854
 3420DECAN   C934189   7.156   3.126  13.475 -0.0087  0.0532 -0.4774
 3420DECAN  C1034190   7.210   3.152  13.333  0.4831  0.1737 -0.2701
 3421DECAN   C134191   9.944   5.115  12.537 -0.0230  0.2541 -0.2688
 3421DECAN   C234192  10.048   5.216  12.484 -0.0872  0.0652 -0.7513
 3421DECAN   C334193   9.979   5.354  12.476 -0.5820 -0.1183  0.1727
 3421DECAN   C434194  10.071   5.475  12.453 -0.7948  0.0573  0.2450
 3421DECAN   C534195  10.007   5.594  12.379 -0.1812  0.3865  0.2311
 3421DECAN   C634196  10.109   5.706  12.351 -0.1861  0.3803  0.1888
 3421DECAN   C734197  10.052   5.837  12.292 -0.5676  0.1780  0.1018
 3421DECAN   C834198  10.157   5.949  12.293 -0.2270 -0.1311 -0.5039
 3421DECAN   C934199  10.131   6.083  12.221  0.4471  0.2542 -0.0519
 3421DECAN  C1034200  10.227   6.198  12.254  0.5691  0.0815  0.1921
 3422DECAN   C134201   6.709   4.252   9.807  0.5107 -0.3309 -0.0563
 3422DECAN   C234202   6.827   4.176   9.869  0.3762  0.0225  0.6423
 3422DECAN   C334203   6.923   4.277   9.935  0.7245 -0.1061  0.3322
 3422DECAN   C434204   7.000   4.362   9.832  0.2324 -0.7961 -0.6244
 3422DECAN   C534205   6.904   4.460   9.762  0.2736  0.0463  0.4743
 3422DECAN   C634206   6.972   4.575   9.686  0.2170 -0.2106  0.0320
 3422DECAN   C734207   6.868   4.671   9.625  0.2870 -0.3134 -0.2526
 3422DECAN   C834208   6.934   4.809   9.606 -0.0277 -0.1246  0.0187
 3422DECAN   C934209   6.829   4.922   9.606  0.0100 -0.0883  0.4774
 3422DECAN  C1034210   6.688   4.872   9.571 -0.0732  0.3146  0.2342
 3423DECAN   C134211   7.114   8.951  11.215 -0.2763  0.5861  0.3564
 3423DECAN   C234212   7.037   9.020  11.101 -0.1844 -0.0294 -0.0819
 3423DECAN   C334213   7.134   9.104  11.016 -0.5260  0.6235  0.1652
 3423DECAN   C434214   7.074   9.186  10.901 -0.4423  0.0722 -0.2810
 3423DECAN   C534215   7.170   9.303  10.870 -0.1584 -0.0657  0.0730
 3423DECAN   C634216   7.127   9.366  10.736 -0.1965 -0.0080  0.1128
 3423DECAN   C734217   7.135   9.279  10.610  0.5133  0.1232  0.0650
 3423DECAN   C834218   7.077   9.348  10.485  0.2613 -0.4573 -0.1421
 3423DECAN   C934219   7.106   9.262  10.361  0.1330 -0.2801 -0.2955
 3423DECAN  C1034220   7.074   9.111  10.367 -0.2701 -0.1696  0.3815
 3424DECAN   C134221   2.050   2.642   9.777  0.3684  0.5020 -0.2467
 3424DECAN   C234222   2.027   2.782   9.717 -0.0403  0.5719  0.0607
 3424DECAN   C334223   2.085   2.788   9.574 -0.3948 -0.0011 -0.1085
 3424DECAN   C434224   1.988   2.725   9.472 -0.6695  0.3565 -0.0712
 3424DECAN   C534225   1.955   2.577   9.497 -0.0418  0.1776 -0.2738
 3424DECAN   C634226   1.865   2.504   9.396  0.2114 -0.3210 -0.1428
 3424DECAN   C734227   1.853   2.352   9.414 -0.2577 -0.2476  0.1699
 3424DECAN   C834228   1.781   2.275   9.301 -0.1652 -0.1353  0.0352
 3424DECAN   C934229   1.704   2.156   9.359 -0.7994  0.2875  0.0661
 3424DECAN  C1034230   1.657   2.063   9.246  0.3662 -0.4216  0.1535
 3425DECAN   C134231   6.584   4.908   5.735 -0.0380  0.0556 -0.1914
 3425DECAN   C234232   6.446   4.977   5.729 -0.1493 -0.1351  0.2115
 3425DECAN   C334233   6.381   4.963   5.590 -0.3163 -0.1902  0.2941
 3425DECAN   C434234   6.282   5.077   5.560  0.3472  0.2798 -0.1339
 3425DECAN   C534235   6.167   5.074   5.662  0.1252  0.4934 -0.3752
 3425DECAN   C634236   6.071   5.194   5.662 -0.2082  0.2298 -0.2881
 3425DECAN   C734237   5.952   5.168   5.757  0.2665  0.4447  0.3779
 3425DECAN   C834238   5.835   5.264   5.729  0.3303  0.2213 -0.6978
 3425DECAN   C934239   5.697   5.216   5.779  0.4973  0.1503 -0.3047
 3425DECAN  C1034240   5.661   5.078   5.722  0.1822  0.0229  0.2059
 3426DECAN   C134241   4.408  10.900  11.662 -0.2718 -0.0722 -0.2077
 3426DECAN   C234242   4.409  10.762  11.592  0.0214  0.0071 -0.3626
 3426DECAN   C334243   4.476  10.643  11.663  0.0901  0.5214  0.4539
 3426DECAN   C434244   4.619  10.671  11.713  0.2818  0.2644  0.0531
 3426DECAN   C534245   4.714  10.730  11.607  0.5061  0.0812  0.1515
 3426DECAN   C634246   4.851  10.753  11.673  0.3197  0.8647  0.2746
 3426DECAN   C734247   4.940  10.831  11.574  0.1564  0.5477 -0.1226
 3426DECAN   C834248   5.079  10.877  11.620  0.0761  0.6130  0.0537
 3426DECAN   C934249   5.165  10.959  11.522  0.3855 -0.4264 -0.5597
 3426DECAN  C1034250   5.089  11.080  11.464  0.3119 -0.3525 -0.3096
 3427DECAN   C134251   9.739   9.174  10.853  0.1266  0.1978  0.1441
 3427DECAN   C234252   9.718   9.315  10.911 -0.0600  0.2420 -0.0288
 3427DECAN   C334253   9.596   9.392  10.858 -0.4215 -0.2716  0.0523
 3427DECAN   C434254   9.585   9.541  10.895  0.0699 -0.2098 -0.0453
 3427DECAN   C534255   9.493   9.636  10.816 -0.0545 -0.3216 -0.0338
 3427DECAN   C634256   9.488   9.778  10.878 -0.2149 -0.2257 -0.2632
 3427DECAN   C734257   9.458   9.791  11.028  0.6016  0.2309 -0.1346
 3427DECAN   C834258   9.382   9.917  11.072 -0.0624 -0.1572 -0.1635
 3427DECAN   C934259   9.443  10.052  11.028 -0.5306 -0.0078 -0.3721
 3427DECAN  C1034260   9.362  10.170  11.084 -0.3676 -0.2261  0.3429
 3428DECAN   C134261   7.741   9.383  10.074 -0.1606 -0.1516  0.5828
 3428DECAN   C234262   7.681   9.522  10.047 -0.1442 -0.2856 -0.1537
 3428DECAN   C334263   7.726   9.559   9.904  0.1056 -0.0632 -0.0187
 3428DECAN   C434264   7.686   9.702   9.865  0.3641  0.0395  0.0891
 3428DECAN   C534265   7.725   9.740   9.720 -0.5344  0.0712 -0.1518
 3428DECAN   C634266   7.683   9.883   9.681 -0.4141  0.0015 -0.5296
 3428DECAN   C734267   7.743   9.921   9.544  0.1547  0.2899 -0.2054
 3428DECAN   C834268   7.897   9.919   9.543  0.1509 -0.0453 -0.3770
 3428DECAN   C934269   7.954   9.978   9.413  0.7649  0.2650  0.0281
 3428DECAN  C1034270   7.921  10.128   9.402  0.6367  0.2348 -0.0100
 3429DECAN   C134271   6.192   3.716  14.245  0.2995 -0.0682  0.2633
 3429DECAN   C234272   6.331   3.776  14.218  0.1900 -0.2018 -0.6378
 3429DECAN   C334273   6.349   3.908  14.142 -0.2661  0.1654 -0.1150
 3429DECAN   C434274   6.495   3.952  14.124 -0.3052  0.2999 -0.1065
 3429DECAN   C534275   6.516   4.078  14.037  0.4593  0.3018  0.0725
 3429DECAN   C634276   6.505   4.041  13.888 -0.1266  0.5727  0.0479
 3429DECAN   C734277   6.498   4.168  13.801  0.1575  0.2170 -0.4974
 3429DECAN   C834278   6.380   4.265  13.824  0.0779 -0.1444  0.6730
 3429DECAN   C934279   6.407   4.410  13.781 -0.5968 -0.4145 -0.7245
 3429DECAN  C1034280   6.309   4.502  13.857 -0.0500 -0.6021  0.2144
 3430DECAN   C134281   8.256   9.578   4.141 -0.9291  0.1630  0.3974
 3430DECAN   C234282   8.136   9.500   4.085 -0.1222 -0.1828 -0.8863
 3430DECAN   C334283   8.004   9.579   4.094 -0.1290 -0.2781 -0.1100
 3430DECAN   C434284   7.981   9.648   3.959 -0.1233  0.2412  0.1525
 3430DECAN   C534285   7.852   9.734   3.955 -0.2030  0.1048 -0.2358
 3430DECAN   C634286   7.828   9.790   4.096  0.1880  0.0983 -0.1637
 3430DECAN   C734287   7.721   9.901   4.109  0.1895  0.1452 -0.5440
 3430DECAN   C834288   7.575   9.872   4.071  0.1448 -0.0477 -0.2333
 3430DECAN   C934289   7.513   9.762   4.159  0.1953  0.0641 -0.0588
 3430DECAN  C1034290   7.497   9.839   4.292 -0.3942 -0.5430  0.2276
 3431DECAN   C134291   6.787   7.538  13.399  0.8408  0.1850 -0.1159
 3431DECAN   C234292   6.738   7.425  13.491 -0.2872  0.8313  0.0961
 3431DECAN   C334293   6.612   7.356  13.435 -0.3204  0.5182  0.5503
 3431DECAN   C434294   6.630   7.322  13.286 -0.5221  0.5514  0.5182
 3431DECAN   C534295   6.632   7.448  13.199 -1.4199 -0.0267 -0.3625
 3431DECAN   C634296   6.684   7.432  13.055  0.6366  0.4096  0.2887
 3431DECAN   C734297   6.677   7.568  12.983  0.3860  0.2324 -0.0278
 3431DECAN   C834298   6.781   7.573  12.870  0.0033 -0.1542 -0.3999
 3431DECAN   C934299   6.832   7.710  12.822 -0.5342  0.1698 -0.0556
 3431DECAN  C1034300   6.906   7.785  12.934  0.3166 -0.6176 -0.0771
 3432DECAN   C134301   4.735   8.271   6.195  0.1553 -0.2700  0.0560
 3432DECAN   C234302   4.858   8.306   6.110 -0.1387 -0.0321 -0.2731
 3432DECAN   C334303   4.850   8.443   6.039  0.1038 -0.0739 -0.3853
 3432DECAN   C434304   4.973   8.466   5.949  0.3727  0.2644  0.0655
 3432DECAN   C534305   4.973   8.601   5.875 -0.2908  0.2269 -0.0128
 3432DECAN   C634306   5.108   8.621   5.804 -0.1753  0.2795  0.2207
 3432DECAN   C734307   5.090   8.713   5.682  0.3380 -0.1418 -0.1725
 3432DECAN   C834308   5.044   8.857   5.709 -0.3207 -0.4378  0.3075
 3432DECAN   C934309   5.154   8.944   5.774 -0.2198  0.2152 -0.7097
 3432DECAN  C1034310   5.280   8.975   5.692  0.3228 -1.0621 -0.3886
 3433DECAN   C134311   6.595  10.385   5.035 -0.5286 -0.2216 -0.2572
 3433DECAN   C234312   6.661  10.382   4.896 -0.7664 -0.2378 -0.3698
 3433DECAN   C334313   6.811  10.407   4.872 -0.7917  0.1513 -0.1329
 3433DECAN   C434314   6.830  10.437   4.723 -0.2620  0.0276 -0.0924
 3433DECAN   C534315   6.978  10.460   4.687 -0.0442 -0.1698  0.6725
 3433DECAN   C634316   7.034  10.571   4.778  0.5447  0.2402 -0.1795
 3433DECAN   C734317   7.029  10.526   4.925 -0.2178  0.3463 -0.1730
 3433DECAN   C834318   7.087  10.623   5.030 -0.4400  0.0846  0.1946
 3433DECAN   C934319   7.003  10.750   5.054  0.0350  0.3479  0.4817
 3433DECAN  C1034320   6.896  10.749   5.165 -0.3556 -0.4770  0.1105
 3434DECAN   C134321   1.088   2.932  10.890  0.2343  0.2447  0.2670
 3434DECAN   C234322   1.143   2.906  10.749 -0.0613  0.0021  0.1983
 3434DECAN   C334323   1.275   2.981  10.729 -0.1945  0.1894  0.0094
 3434DECAN   C434324   1.343   2.954  10.594 -0.3350  0.2822 -0.0795
 3434DECAN   C534325   1.463   3.048  10.568 -0.1827  0.1495  0.1395
 3434DECAN   C634326   1.392   3.184  10.557 -0.1574  0.1494 -0.0233
 3434DECAN   C734327   1.492   3.300  10.544  0.1212 -0.0520  0.2981
 3434DECAN   C834328   1.433   3.441  10.564  0.2090 -0.0399  0.4700
 3434DECAN   C934329   1.353   3.455  10.695 -0.4744 -0.7491  0.1381
 3434DECAN  C1034330   1.305   3.598  10.728  0.4490 -0.2790 -0.4945
 3435DECAN   C134331   7.842   1.613   6.707 -0.0002 -0.5116 -0.0541
 3435DECAN   C234332   7.868   1.506   6.815 -0.3319 -0.0104  0.5244
 3435DECAN   C334333   8.004   1.527   6.885  0.3273 -0.5053 -0.5825
 3435DECAN   C434334   8.040   1.418   6.986 -0.1573  0.0056  0.1538
 3435DECAN   C534335   8.181   1.429   7.048 -0.0369  0.3377 -0.1807
 3435DECAN   C634336   8.286   1.446   6.937  0.7054  0.7877  0.5828
 3435DECAN   C734337   8.435   1.440   6.976  0.8311 -0.8243 -0.0453
 3435DECAN   C834338   8.477   1.570   7.048 -0.2183 -0.4455 -0.1035
 3435DECAN   C934339   8.597   1.558   7.143 -0.0957  0.0805 -0.1881
 3435DECAN  C1034340   8.662   1.692   7.181  0.0834  0.0367 -0.3371
 3436DECAN   C134341   2.189   5.246  14.849  0.2689  0.0267 -0.2011
 3436DECAN   C234342   2.303   5.281  14.945  0.0813  0.0854  0.0016
 3436DECAN   C334343   2.427   5.339  14.874 -0.0806  0.1257 -0.2479
 3436DECAN   C434344   2.536   5.378  14.975 -0.3148  0.6581 -0.1973
 3436DECAN   C534345   2.661   5.422  14.895  0.2617 -0.1520  0.2367
 3436DECAN   C634346   2.699   5.323  14.784 -0.5047 -0.2360  0.0393
 3436DECAN   C734347   2.819   5.347  14.691 -0.7109 -0.0915 -0.1885
 3436DECAN   C834348   2.774   5.459  14.595  0.8357  0.2899 -0.4969
 3436DECAN   C934349   2.728   5.591  14.658  0.0306 -0.1022 -0.2436
 3436DECAN  C1034350   2.739   5.705  14.555 -0.6027  0.5570  0.4059
 3437DECAN   C134351   7.122  11.215   7.375 -1.1288  0.1319  0.3551
 3437DECAN   C234352   7.072   0.112   7.338 -0.4768  0.2391 -0.1157
 3437DECAN   C334353   7.131   0.229   7.419 -0.0733  0.0352 -0.1104
 3437DECAN   C434354   7.083   0.370   7.380 -0.0160  0.0704 -0.0545
 3437DECAN   C534355   6.931   0.384   7.406  0.0943  0.1204  0.5768
 3437DECAN   C634356   6.881   0.527   7.378 -0.2903 -0.0967  0.1622
 3437DECAN   C734357   6.929   0.642   7.468 -0.6330 -0.1170  0.3715
 3437DECAN   C834358   7.079   0.648   7.503 -0.6856  0.3782  0.5268
 3437DECAN   C934359   7.128   0.768   7.584  0.1859  0.5453 -0.2352
 3437DECAN  C1034360   7.136   0.896   7.499  0.2429  0.5676 -0.1970
 3438DECAN   C134361  10.055   2.590   5.649  0.0987  0.3106  0.0832
 3438DECAN   C234362  10.064   2.603   5.496  0.6929  0.1559  0.1015
 3438DECAN   C334363   9.998   2.732   5.444 -0.5813 -0.6275 -0.2580
 3438DECAN   C434364   9.845   2.749   5.456 -0.4220  0.5996  0.1358
 3438DECAN   C534365   9.784   2.635   5.372  0.0490  0.2570  0.2530
 3438DECAN   C634366   9.639   2.643   5.320  0.2733  0.4133 -0.3553
 3438DECAN   C734367   9.629   2.628   5.167 -0.0263  0.0437 -0.3007
 3438DECAN   C834368   9.481   2.644   5.127 -0.1133 -0.1179 -0.0486
 3438DECAN   C934369   9.435   2.589   4.991 -0.2374 -0.2065  0.0302
 3438DECAN  C1034370   9.535   2.624   4.880  0.0873 -0.1206  0.3508
 3439DECAN   C134371   9.989   1.498   8.328 -0.0209  0.1914  0.4371
 3439DECAN   C234372  10.120   1.449   8.393 -0.1318 -0.0751  0.4585
 3439DECAN   C334373  10.251   1.441   8.313 -0.5540 -0.4620 -0.2057
 3439DECAN   C434374  10.246   1.340   8.197 -0.2775  0.1335 -0.7408
 3439DECAN   C534375  10.241   1.199   8.257  0.0183  0.2989 -0.3249
 3439DECAN   C634376  10.128   1.173   8.358 -0.1356 -0.3169 -0.6492
 3439DECAN   C734377  10.165   1.054   8.448 -0.4138  0.3444  0.3523
 3439DECAN   C834378  10.067   1.044   8.567 -0.0995  0.7175  0.6433
 3439DECAN   C934379  10.085   0.902   8.623 -0.4555  0.2982 -0.2819
 3439DECAN  C1034380  10.013   0.879   8.758 -0.2080  0.2062 -0.1645
 3440DECAN   C134381   8.692  11.171  12.839 -0.1857 -0.2919 -0.6023
 3440DECAN   C234382   8.594   0.045  12.829  0.1546  0.0843  0.3852
 3440DECAN   C334383   8.448   0.000  12.840  0.2015 -0.1634 -0.0081
 3440DECAN   C434384   8.351   0.117  12.869  0.1077 -0.2794  0.1475
 3440DECAN   C534385   8.201   0.086  12.878 -0.1038  0.6683 -0.0039
 3440DECAN   C634386   8.130   0.062  12.744  0.0751  0.0932 -0.0003
 3440DECAN   C734387   7.976   0.045  12.747  0.0454  0.3921  0.1616
 3440DECAN   C834388   7.920   0.041  12.604 -0.1494 -0.9608  0.2643
 3440DECAN   C934389   7.771   0.080  12.599  0.1757  0.2706 -0.3666
 3440DECAN  C1034390   7.715   0.079  12.456  0.2199  0.2971 -0.3843
 3441DECAN   C134391   8.600   0.020  10.133  0.0283  0.6766  0.7117
 3441DECAN   C234392   8.684   0.149  10.129  0.1364  0.5873  0.0172
 3441DECAN   C334393   8.634   0.232  10.010  0.0433 -0.0550 -0.3988
 3441DECAN   C434394   8.660   0.384  10.000 -0.4100  0.0537 -0.0074
 3441DECAN   C534395   8.614   0.452   9.870 -0.4804  0.2097  0.1007
 3441DECAN   C634396   8.694   0.410   9.746 -0.0202 -0.3172  0.5697
 3441DECAN   C734397   8.843   0.445   9.761  0.0371 -0.4139  0.2308
 3441DECAN   C834398   8.919   0.406   9.633  0.0598 -0.6237  0.3092
 3441DECAN   C934399   9.073   0.412   9.637  0.0583 -0.3535  0.0028
 3441DECAN  C1034400   9.133   0.366   9.503  0.1524  0.0237 -0.0864
 3442DECAN   C134401   3.238  11.000   4.765 -0.1318 -0.6351  0.5980
 3442DECAN   C234402   3.264  10.929   4.631 -0.3742  0.6173 -0.1297
 3442DECAN   C334403   3.261  11.019   4.506  0.2070  0.2188 -0.4386
 3442DECAN   C434404   3.316  10.948   4.381  0.4118  0.1654 -0.3197
 3442DECAN   C534405   3.347  11.035   4.257  0.1306  0.2563 -0.3278
 3442DECAN   C634406   3.393  10.956   4.133 -0.1451  0.0341 -0.2910
 3442DECAN   C734407   3.494  11.028   4.042 -0.1839 -0.2548 -0.5640
 3442DECAN   C834408   3.452  11.172   4.007 -0.3656 -0.1065  0.2449
 3442DECAN   C934409   3.425   0.006   4.137  0.2407 -0.2659  0.4706
 3442DECAN  C1034410   3.390   0.150   4.096 -0.6912 -0.6836 -0.2449
 3443DECAN   C134411   4.998   8.769  12.569 -0.2856 -0.1476 -0.0090
 3443DECAN   C234412   5.012   8.922  12.563 -0.0081 -0.1893 -0.4723
 3443DECAN   C334413   5.149   8.991  12.579 -0.0833 -0.0330 -0.4918
 3443DECAN   C434414   5.126   9.143  12.585 -0.2638 -0.0650 -0.3957
 3443DECAN   C534415   5.051   9.203  12.465 -0.8855  0.1794  0.1070
 3443DECAN   C634416   5.117   9.328  12.403 -0.1314 -0.3374 -0.1515
 3443DECAN   C734417   5.041   9.397  12.288 -0.0540  0.3124  0.1781
 3443DECAN   C834418   5.008   9.302  12.171  0.2721  0.6751 -0.2113
 3443DECAN   C934419   5.128   9.240  12.096  0.0306 -0.4132  0.2756
 3443DECAN  C1034420   5.202   9.337  12.002  0.2517 -1.0363 -0.2005
 3444DECAN   C134421   2.938   3.933  12.522 -0.1845 -0.2216 -0.2822
 3444DECAN   C234422   3.013   3.824  12.444  0.9302  0.1105  0.3056
 3444DECAN   C334423   3.073   3.877  12.312  0.1021  0.4143  0.0442
 3444DECAN   C434424   3.157   3.783  12.224  0.0382 -0.2481  0.6824
 3444DECAN   C534425   3.216   3.862  12.106  0.0510 -0.5444  0.4903
 3444DECAN   C634426   3.292   3.781  11.999  0.4576  0.1954  0.2081
 3444DECAN   C734427   3.399   3.846  11.910 -0.0929  0.8409  0.0135
 3444DECAN   C834428   3.482   3.758  11.815 -0.0774  0.5612  0.2824
 3444DECAN   C934429   3.411   3.721  11.683  0.2095 -0.1430  0.3206
 3444DECAN  C1034430   3.491   3.624  11.594 -0.3867 -0.1781 -0.1839
 3445DECAN   C134431   3.175  10.097   4.233  0.5088  0.0752  0.1256
 3445DECAN   C234432   3.237  10.123   4.372  0.5358 -0.5206  0.2299
 3445DECAN   C334433   3.146  10.116   4.496  0.0321 -0.3161 -0.1242
 3445DECAN   C434434   3.199  10.163   4.633 -0.0376  0.2082 -0.2738
 3445DECAN   C534435   3.091  10.144   4.741 -0.0957  0.2833 -0.3191
 3445DECAN   C634436   3.147  10.187   4.878 -0.1655  0.3687 -0.3169
 3445DECAN   C734437   3.044  10.189   4.993  0.4452  0.0135  0.2499
 3445DECAN   C834438   3.082  10.219   5.139  0.0395  0.3039  0.2977
 3445DECAN   C934439   3.188  10.122   5.195 -0.3008 -0.0406  0.3450
 3445DECAN  C1034440   3.233  10.150   5.340 -0.0743 -0.7281  0.4073
 3446DECAN   C134441   5.829   6.304   8.116  0.1802  0.4804  0.4046
 3446DECAN   C234442   5.678   6.280   8.094  0.3409  0.0773 -0.2664
 3446DECAN   C334443   5.633   6.133   8.105 -0.2683  0.2501 -0.4182
 3446DECAN   C434444   5.488   6.116   8.056 -0.3254  0.0838 -0.1983
 3446DECAN   C534445   5.419   5.995   8.120 -0.2071  0.3319  0.4018
 3446DECAN   C634446   5.277   5.958   8.071 -0.0823  0.4863 -0.0836
 3446DECAN   C734447   5.217   5.832   8.137  0.1103  0.2451 -0.3686
 3446DECAN   C834448   5.116   5.755   8.050  0.4999 -0.6496 -0.0474
 3446DECAN   C934449   4.988   5.839   8.026  0.3634 -0.8750 -0.1085
 3446DECAN  C1034450   4.892   5.799   7.913 -0.5706 -0.5562  0.5641
 3447DECAN   C134451   3.649   1.337  13.592 -0.0355  0.2833  0.5443
 3447DECAN   C234452   3.684   1.473  13.529  0.5099 -0.0427  0.1269
 3447DECAN   C334453   3.810   1.475  13.441  0.4758 -0.0757  0.0773
 3447DECAN   C434454   3.838   1.607  13.367  0.5165 -0.3315 -0.3655
 3447DECAN   C534455   3.869   1.710  13.477  0.0490 -0.4879 -0.0846
 3447DECAN   C634456   3.898   1.855  13.435  0.3525 -0.4652  0.1991
 3447DECAN   C734457   4.025   1.868  13.349 -0.0229  0.3319 -0.2440
 3447DECAN   C834458   4.152   1.811  13.413 -0.2843  0.3891  0.3395
 3447DECAN   C934459   4.286   1.842  13.343 -0.2170 -0.1032  0.2425
 3447DECAN  C1034460   4.300   1.989  13.300 -0.0119 -0.1827  0.0358
 3448DECAN   C134461   8.889   1.748   6.834  0.2827 -0.0710  0.0688
 3448DECAN   C234462   8.912   1.786   6.686  0.3775 -0.2174  0.0458
 3448DECAN   C334463   8.911   1.664   6.593  0.4504 -0.1572 -0.0347
 3448DECAN   C434464   8.921   1.672   6.440  0.0649 -0.1452 -0.0597
 3448DECAN   C534465   8.908   1.529   6.385  0.1039 -0.2841  0.2946
 3448DECAN   C634466   8.763   1.477   6.389  0.0657 -0.1903  0.1155
 3448DECAN   C734467   8.759   1.341   6.318 -0.0259 -0.2895  0.3104
 3448DECAN   C834468   8.633   1.263   6.359  0.1132 -0.4891  0.3625
 3448DECAN   C934469   8.614   1.132   6.281  0.1414 -0.3321  0.0910
 3448DECAN  C1034470   8.470   1.084   6.310  0.0790  0.0250  0.3862
 3449DECAN   C134471   2.377   8.223  14.879  0.1061 -0.6037  0.2757
 3449DECAN   C234472   2.248   8.157  14.828 -0.1034 -0.4374  0.5864
 3449DECAN   C334473   2.119   8.242  14.832  0.2717  0.1807 -0.1347
 3449DECAN   C434474   2.092   8.304  14.970  0.4909  0.4880 -0.2271
 3449DECAN   C534475   1.963   8.387  14.982  0.2774  0.1800 -0.3508
 3449DECAN   C634476   1.963   8.520  14.904  0.4077  0.3854 -0.0034
 3449DECAN   C734477   1.843   8.611  14.937  0.0440 -0.2034  0.3120
 3449DECAN   C834478   1.849   8.685  15.072 -0.1409  0.0583  0.1794
 3449DECAN   C934479   1.752   8.802  15.094 -0.2671 -0.0355  0.1229
 3449DECAN  C1034480   1.609   8.775  15.044 -0.0615  0.0393 -0.5162
 3450DECAN   C134481   5.425   5.502   7.277 -0.3847 -0.2786  0.3615
 3450DECAN   C234482   5.354   5.635   7.311  0.0669  0.0001  0.2218
 3450DECAN   C334483   5.203   5.622   7.282 -0.1336  0.0954  1.1871
 3450DECAN   C434484   5.113   5.738   7.330 -0.3456  0.1086  0.7622
 3450DECAN   C534485   4.962   5.712   7.340 -0.3720 -0.1332 -0.1120
 3450DECAN   C634486   4.909   5.628   7.458 -0.2775 -0.0993 -0.0450
 3450DECAN   C734487   4.762   5.653   7.497 -0.2103  0.4596 -0.1517
 3450DECAN   C834488   4.740   5.587   7.634  0.1017  0.0866 -0.2804
 3450DECAN   C934489   4.592   5.588   7.677  0.1040  0.0464 -0.2714
 3450DECAN  C1034490   4.501   5.485   7.608 -0.5521 -0.1543  0.8770
 3451DECAN   C134491   3.406   0.175   7.595  0.1767  0.3239  0.3104
 3451DECAN   C234492   3.260   0.221   7.613  0.2388  0.3033  0.8961
 3451DECAN   C334493   3.159   0.109   7.644 -0.1293  0.2091 -0.5595
 3451DECAN   C434494   3.022   0.179   7.646 -0.1063  0.2399  0.0786
 3451DECAN   C534495   2.904   0.082   7.659  0.1914 -0.1342  0.0048
 3451DECAN   C634496   2.777   0.155   7.706  0.1917 -0.2422  0.1731
 3451DECAN   C734497   2.640   0.084   7.707  0.5198 -0.8872  0.0107
 3451DECAN   C834498   2.586   0.065   7.564  0.6942  0.0148 -0.1821
 3451DECAN   C934499   2.560   0.203   7.502 -0.4371 -0.1068  0.0055
 3451DECAN  C1034500   2.678   0.292   7.457 -0.2974 -0.3114 -0.0340
 3452DECAN   C134501   1.159   1.422  10.642 -0.7150  0.0551  0.1581
 3452DECAN   C234502   1.169   1.564  10.703  0.2127 -0.1445  0.4783
 3452DECAN   C334503   1.032   1.593  10.768 -0.0435  0.1023 -0.1632
 3452DECAN   C434504   1.018   1.507  10.895 -0.5055 -0.0275 -0.3019
 3452DECAN   C534505   1.101   1.583  11.000 -0.4313  0.1297 -0.4761
 3452DECAN   C634506   1.251   1.594  10.966 -0.2500  0.0060  0.2826
 3452DECAN   C734507   1.336   1.666  11.072  0.8320  0.6577 -0.9996
 3452DECAN   C834508   1.488   1.640  11.066  0.8203  0.4808 -0.6117
 3452DECAN   C934509   1.548   1.713  11.187  0.2344  0.5079 -0.3355
 3452DECAN  C1034510   1.698   1.735  11.161  0.3359  0.5084  0.2234
 3453DECAN   C134511   3.371   7.680   5.167  0.4040 -0.1920  0.2599
 3453DECAN   C234512   3.494   7.755   5.113  0.3223 -0.0785  0.2330
 3453DECAN   C334513   3.590   7.825   5.210  0.3178 -0.1104  0.2603
 3453DECAN   C434514   3.669   7.729   5.301 -0.6043 -0.4975  0.6558
 3453DECAN   C534515   3.770   7.807   5.388 -0.2627 -0.4924  0.2543
 3453DECAN   C634516   3.830   7.708   5.489  0.0156 -0.1922  0.3843
 3453DECAN   C734517   3.717   7.669   5.586  0.0098  0.1392  0.5100
 3453DECAN   C834518   3.678   7.791   5.672  0.0543  0.4520  0.0896
 3453DECAN   C934519   3.562   7.757   5.768 -0.1184  0.2141 -0.2015
 3453DECAN  C1034520   3.490   7.871   5.842 -0.4721 -0.1065 -0.0488
 3454DECAN   C134521   4.759   7.406   4.699  0.2199 -0.3812  0.2439
 3454DECAN   C234522   4.912   7.407   4.686  0.1568  0.0521 -0.5218
 3454DECAN   C334523   4.974   7.509   4.785  0.1826  0.0570 -0.5437
 3454DECAN   C434524   5.126   7.527   4.768  0.3255 -0.3020  0.2964
 3454DECAN   C534525   5.167   7.650   4.850  0.2529 -0.2804  0.3002
 3454DECAN   C634526   5.219   7.628   4.993 -0.2218  0.1899  0.5507
 3454DECAN   C734527   5.300   7.748   5.045  0.2523  0.3610 -0.5530
 3454DECAN   C834528   5.348   7.724   5.189 -0.3875 -0.2236 -0.4381
 3454DECAN   C934529   5.445   7.605   5.208  0.3743  0.3918 -0.4638
 3454DECAN  C1034530   5.530   7.612   5.336 -0.0079  0.5092 -0.2116
 3455DECAN   C134531   7.507   0.232  13.228 -0.0294  0.3700 -0.1110
 3455DECAN   C234532   7.541   0.305  13.359 -0.1408 -0.2396  0.2565
 3455DECAN   C334533   7.426   0.367  13.441 -0.0960  0.0169  0.1267
 3455DECAN   C434534   7.482   0.418  13.575 -0.3931  0.5915  0.0327
 3455DECAN   C534535   7.391   0.432  13.698 -0.3388  0.2734  0.1124
 3455DECAN   C634536   7.465   0.473  13.827  0.3606  0.1409 -0.2453
 3455DECAN   C734537   7.383   0.485  13.957  0.5783  0.2916 -0.1202
 3455DECAN   C834538   7.462   0.522  14.083 -0.0314 -0.2468  0.4248
 3455DECAN   C934539   7.375   0.562  14.204 -0.0012  0.4159  0.2311
 3455DECAN  C1034540   7.463   0.590  14.328  0.4311  0.6503 -0.1242
 3456DECAN   C134541   1.262   1.993   9.444 -0.6982 -0.1995 -0.0945
 3456DECAN   C234542   1.245   2.009   9.291  0.4008 -0.5372 -0.2548
 3456DECAN   C334543   1.117   1.943   9.238 -0.0416  0.0188  0.1125
 3456DECAN   C434544   1.106   1.790   9.229  0.7919 -0.0328 -0.1357
 3456DECAN   C534545   1.145   1.750   9.085 -0.3993 -0.1298 -0.4491
 3456DECAN   C634546   1.128   1.598   9.070 -0.5916 -0.1298 -0.2371
 3456DECAN   C734547   1.204   1.494   9.153 -0.1545  0.6019  0.2909
 3456DECAN   C834548   1.156   1.348   9.138 -0.4823  0.6367  0.9587
 3456DECAN   C934549   1.234   1.250   9.228 -0.3834  0.1162  0.3211
 3456DECAN  C1034550   1.225   1.288   9.378 -0.0158  0.5536  0.2334
 3457DECAN   C134551   4.612   9.762   7.979 -0.3713 -0.5896 -0.0638
 3457DECAN   C234552   4.685   9.833   7.864 -0.5230 -0.1760  0.0952
 3457DECAN   C334553   4.673   9.987   7.867  0.4904 -0.0886  0.0387
 3457DECAN   C434554   4.727  10.070   7.749  0.4060  0.4508  0.3782
 3457DECAN   C534555   4.712  10.222   7.772  0.1443  0.4670  0.1155
 3457DECAN   C634556   4.761  10.296   7.647 -0.6719  0.7318 -0.0520
 3457DECAN   C734557   4.688  10.264   7.515  0.3225 -0.2543 -0.3796
 3457DECAN   C834558   4.745  10.358   7.407 -0.3495  0.3062 -0.2592
 3457DECAN   C934559   4.767  10.495   7.473 -0.1174  0.2014 -0.1153
 3457DECAN  C1034560   4.633  10.554   7.522 -0.0453  0.1657  0.1262
 3458DECAN   C134561   4.182   5.950  12.631  0.3541  0.8133 -0.0437
 3458DECAN   C234562   4.141   5.995  12.772 -0.2856  0.4202 -0.1011
 3458DECAN   C334563   4.242   5.952  12.880 -0.2256  0.3943 -0.1674
 3458DECAN   C434564   4.214   5.976  13.030 -0.2293  0.1597 -0.1287
 3458DECAN   C534565   4.335   5.963  13.124 -0.3255  0.0086 -0.0266
 3458DECAN   C634566   4.386   5.818  13.137 -0.1657  0.0765  0.0965
 3458DECAN   C734567   4.288   5.710  13.187 -0.2346 -0.0863 -0.3805
 3458DECAN   C834568   4.320   5.567  13.142  0.4854 -0.0081 -0.1397
 3458DECAN   C934569   4.236   5.464  13.219  0.1048  0.1849 -0.2948
 3458DECAN  C1034570   4.091   5.445  13.171  0.2409 -0.1877 -0.5639
 3459DECAN   C134571   2.891   4.533  11.011  0.2962  0.2454 -0.5916
 3459DECAN   C234572   2.793   4.651  10.996  0.2116  0.2593  0.0320
 3459DECAN   C334573   2.853   4.773  11.068  0.4195  0.1889 -0.0222
 3459DECAN   C434574   2.812   4.910  11.011 -0.5357 -0.0374  0.1061
 3459DECAN   C534575   2.864   5.034  11.085 -0.4768 -0.2007  0.3377
 3459DECAN   C634576   3.017   5.055  11.078 -0.5252  0.1673  0.3541
 3459DECAN   C734577   3.088   5.171  11.151  0.3364 -0.2856  0.2478
 3459DECAN   C834578   3.232   5.191  11.100  0.3535  0.4380  0.5739
 3459DECAN   C934579   3.301   5.324  11.136  0.0412  0.7399  0.0736
 3459DECAN  C1034580   3.429   5.352  11.056  0.1909 -0.3210 -0.0735
 3460DECAN   C134581   1.896   5.381   8.447  0.3271 -0.2952  0.3147
 3460DECAN   C234582   1.911   5.382   8.600 -0.0118 -0.0517  0.3480
 3460DECAN   C334583   2.035   5.310   8.655  0.2621 -0.3845 -0.6869
 3460DECAN   C434584   2.177   5.355   8.615  0.3474  0.2106  0.2437
 3460DECAN   C534585   2.293   5.299   8.700  0.1450  0.3981  0.6468
 3460DECAN   C634586   2.427   5.370   8.674  0.1047  0.3369  0.2617
 3460DECAN   C734587   2.520   5.328   8.789  0.2842 -0.4161 -0.1466
 3460DECAN   C834588   2.520   5.175   8.803 -0.2075 -0.4682 -0.6875
 3460DECAN   C934589   2.593   5.120   8.927 -0.2186 -0.2102 -0.5653
 3460DECAN  C1034590   2.586   4.968   8.949  0.1560 -0.1800 -0.2171
 3461DECAN   C134591   9.155   7.773  13.182 -0.5221  0.2140 -0.3335
 3461DECAN   C234592   9.075   7.756  13.052 -0.0313  0.1823 -0.6325
 3461DECAN   C334593   8.950   7.667  13.065  0.0866  0.1729  0.4633
 3461DECAN   C434594   8.850   7.715  13.173 -0.8435 -0.1970 -0.2230
 3461DECAN   C534595   8.785   7.600  13.251 -0.2426  0.0625  0.6717
 3461DECAN   C634596   8.884   7.513  13.331  0.2040 -0.1790 -0.1407
 3461DECAN   C734597   8.810   7.418  13.426 -0.2454 -0.0779 -0.3861
 3461DECAN   C834598   8.902   7.303  13.470 -0.0382  0.3483  0.3043
 3461DECAN   C934599   8.833   7.210  13.572  0.0365  0.0315  0.0692
 3461DECAN  C1034600   8.760   7.280  13.688  0.2664  0.0834  0.1824
 3462DECAN   C134601   9.385   7.962  14.500 -0.4378  0.1541 -0.6020
 3462DECAN   C234602   9.374   7.871  14.376  0.0154 -0.5402 -0.1414
 3462DECAN   C334603   9.485   7.881  14.269  0.0682  0.1577 -0.0248
 3462DECAN   C434604   9.503   7.748  14.194 -0.3482  0.2596 -0.3098
 3462DECAN   C534605   9.600   7.767  14.076  0.0900 -0.9205 -0.1565
 3462DECAN   C634606   9.737   7.809  14.133 -0.4172  0.3922  0.1290
 3462DECAN   C734607   9.808   7.687  14.194  0.0843  0.5384 -0.1565
 3462DECAN   C834608   9.935   7.711  14.277 -0.3272 -0.2654  0.7296
 3462DECAN   C934609   9.973   7.582  14.352 -0.0673 -0.5042  0.1938
 3462DECAN  C1034610  10.105   7.586  14.431  0.4367  0.2170 -0.6479
 3463DECAN   C134611   9.572   8.934  13.890  0.2251 -0.0599  0.2466
 3463DECAN   C234612   9.616   8.955  13.744 -0.2154  0.0032  0.1209
 3463DECAN   C334613   9.512   9.023  13.653  0.0389  0.0234 -0.1535
 3463DECAN   C434614   9.542   9.013  13.502  0.0770  0.1538 -0.1549
 3463DECAN   C534615   9.631   9.123  13.441  0.8316  0.0103  0.6636
 3463DECAN   C634616   9.667   9.097  13.293  0.3974 -0.4220  0.6296
 3463DECAN   C734617   9.727   9.216  13.216 -1.2180 -0.1725 -0.3032
 3463DECAN   C834618   9.787   9.173  13.081 -0.7092  0.8037 -0.3974
 3463DECAN   C934619   9.672   9.115  12.997 -0.2104 -0.3157 -0.3260
 3463DECAN  C1034620   9.553   9.213  12.992  0.3703  0.4120 -0.1221
 3464DECAN   C134621   9.145   6.730  14.930 -0.4638  0.1740  0.1836
 3464DECAN   C234622   9.133   6.874  14.984  0.1681 -0.1230  1.1513
 3464DECAN   C334623   8.991   6.905  15.034 -0.1916 -0.3627  0.2993
 3464DECAN   C434624   8.951   7.052  15.055 -0.1282 -0.2360 -0.4447
 3464DECAN   C534625   8.814   7.081  15.118  0.0994  0.4034 -0.2292
 3464DECAN   C634626   8.695   7.041  15.029 -0.1545 -0.0081  0.2913
 3464DECAN   C734627   8.636   6.899  15.046 -0.6464  0.2148  0.4758
 3464DECAN   C834628   8.506   6.881  14.966  0.0483 -0.5059 -0.5129
 3464DECAN   C934629   8.419   6.993  15.025  0.2082 -0.4081 -0.4610
 3464DECAN  C1034630   8.474   7.132  14.985  0.1038 -0.2412 -0.0289
 3465DECAN   C134631   4.404   4.195   9.965 -0.3119 -0.3505 -0.4346
 3465DECAN   C234632   4.290   4.111   9.904 -0.2769 -0.2247 -0.6785
 3465DECAN   C334633   4.149   4.134   9.964  0.1820 -0.0966  0.3836
 3465DECAN   C434634   4.034   4.085   9.874 -0.0507  0.5675  0.3142
 3465DECAN   C534635   3.900   4.088   9.951 -0.0830 -0.4520  0.3127
 3465DECAN   C634636   3.799   3.985   9.898 -0.4388 -0.1978  0.4963
 3465DECAN   C734637   3.654   4.029   9.924 -0.4227  0.0983  0.0959
 3465DECAN   C834638   3.641   4.121  10.047  0.2532  0.2086  0.0866
 3465DECAN   C934639   3.695   4.069  10.182 -0.0825 -0.3485  0.0110
 3465DECAN  C1034640   3.673   4.174  10.293 -0.5309 -1.0111  0.5483
 3466DECAN   C134641   8.162   9.471   8.612  0.3557  0.4404 -0.3669
 3466DECAN   C234642   8.183   9.538   8.750  0.0822  0.2897 -0.2509
 3466DECAN   C334643   8.301   9.637   8.739  0.0076  0.4236  0.1563
 3466DECAN   C434644   8.424   9.570   8.675 -0.1590  0.0665  0.2048
 3466DECAN   C534645   8.538   9.663   8.628 -0.2355  0.0765  0.0374
 3466DECAN   C634646   8.598   9.745   8.744 -0.3079 -0.2040  0.2740
 3466DECAN   C734647   8.648   9.641   8.846  0.2213 -0.3594 -0.1407
 3466DECAN   C834648   8.731   9.706   8.959 -0.1014  0.1187 -0.1793
 3466DECAN   C934649   8.788   9.617   9.070 -0.2991 -0.0004 -0.1720
 3466DECAN  C1034650   8.889   9.692   9.159  0.5813 -0.1880 -0.9918
 3467DECAN   C134651   9.022   3.036   5.624  0.0995  0.0258  0.1185
 3467DECAN   C234652   8.868   3.039   5.640  0.1168  0.2668  0.2617
 3467DECAN   C334653   8.816   2.894   5.650  0.1079  0.2717  0.2837
 3467DECAN   C434654   8.667   2.904   5.690 -0.1663 -0.1228 -0.6112
 3467DECAN   C534655   8.595   2.769   5.679 -0.1945 -0.1321 -0.3113
 3467DECAN   C634656   8.445   2.775   5.710 -0.0478  0.4312  0.3104
 3467DECAN   C734657   8.380   2.636   5.726  0.2508  0.2434 -0.0983
 3467DECAN   C834658   8.227   2.642   5.736  0.2587 -0.2564  0.3699
 3467DECAN   C934659   8.158   2.504   5.734  0.1884 -0.2189  0.1474
 3467DECAN  C1034660   8.037   2.504   5.829  0.0648  0.1723 -0.0074
 3468DECAN   C134661   7.411   1.468  11.279 -0.3734  0.0982  0.4903
 3468DECAN   C234662   7.286   1.558  11.273 -0.4771 -0.0588  0.3030
 3468DECAN   C334663   7.163   1.495  11.204 -0.1108 -0.1283 -0.3003
 3468DECAN   C434664   7.040   1.588  11.201 -0.1977 -0.2220  0.2369
 3468DECAN   C534665   6.917   1.537  11.124 -0.1120 -0.2953  0.1489
 3468DECAN   C634666   6.956   1.531  10.975  0.2744  0.1845  0.2260
 3468DECAN   C734667   6.853   1.456  10.888  0.1979  0.3736  0.1550
 3468DECAN   C834668   6.865   1.492  10.739 -0.5228 -0.6631 -0.1647
 3468DECAN   C934669   6.845   1.639  10.699 -0.6230 -0.4265  0.7289
 3468DECAN  C1034670   6.938   1.742  10.765 -0.2453 -0.5466  0.3909
 3469DECAN   C134671   3.790   4.310   3.905  0.3383 -0.0739  0.3514
 3469DECAN   C234672   3.752   4.166   3.864 -0.0229  0.3584 -0.8762
 3469DECAN   C334673   3.869   4.069   3.837  0.0600  0.0896  0.3912
 3469DECAN   C434674   3.840   3.922   3.802  0.7762  0.0558 -0.0716
 3469DECAN   C534675   3.966   3.838   3.774  0.5096 -0.1753 -0.5901
 3469DECAN   C634676   3.932   3.695   3.726  0.3364 -0.4504  0.3227
 3469DECAN   C734677   3.890   3.606   3.844 -0.2093  0.0082  0.4827
 3469DECAN   C834678   3.759   3.658   3.906 -0.3058  0.0376  0.2551
 3469DECAN   C934679   3.698   3.566   4.014 -0.3632 -0.2318 -0.0035
 3469DECAN  C1034680   3.589   3.645   4.088 -0.7106 -0.1505 -0.5942
 3470DECAN   C134681   4.809   9.608  10.835 -0.7449  0.3804 -0.8923
 3470DECAN   C234682   4.863   9.750  10.863  0.2282 -0.1921  0.2188
 3470DECAN   C334683   4.989   9.791  10.784 -0.1326 -0.0979 -0.3141
 3470DECAN   C434684   4.968   9.764  10.634  0.4493  0.0606 -0.4250
 3470DECAN   C534685   5.094   9.800  10.554  0.2527  0.7381 -0.4383
 3470DECAN   C634686   5.093   9.761  10.406 -0.3590  0.0858 -0.2609
 3470DECAN   C734687   5.209   9.798  10.313 -0.2481  0.4236  0.0097
 3470DECAN   C834688   5.355   9.760  10.347 -0.4882 -0.5628 -0.0086
 3470DECAN   C934689   5.450   9.797  10.231 -0.3407  0.1963  0.3447
 3470DECAN  C1034690   5.595   9.753  10.254 -0.3283  0.1160  0.1204
 3471DECAN   C134691   4.489   3.617   4.062 -0.1438  0.1226  0.1311
 3471DECAN   C234692   4.588   3.639   3.946  0.1025  0.3580  0.3821
 3471DECAN   C334693   4.646   3.781   3.932  0.0919  0.3590  0.3499
 3471DECAN   C434694   4.732   3.801   3.806  0.1623 -0.1007  0.3254
 3471DECAN   C534695   4.811   3.933   3.805  0.3811 -0.2302 -0.1151
 3471DECAN   C634696   4.912   3.928   3.921  0.3816  0.0181 -0.1038
 3471DECAN   C734697   4.972   4.063   3.962 -0.0310  0.0864  0.2844
 3471DECAN   C834698   5.067   4.062   4.083  0.2930  0.0487  0.0301
 3471DECAN   C934699   5.116   4.200   4.131  0.3792  0.2072 -0.5052
 3471DECAN  C1034700   5.213   4.184   4.250 -0.0809  0.3668 -0.1045
 3472DECAN   C134701   7.114   2.811   3.957  0.6418  0.6550  0.3179
 3472DECAN   C234702   7.253   2.859   4.007  0.8653  0.0662  0.2624
 3472DECAN   C334703   7.225   2.964   4.115  0.1505  0.0632  0.0871
 3472DECAN   C434704   7.360   3.032   4.143  0.0091  0.4210 -0.0921
 3472DECAN   C534705   7.464   2.921   4.169 -0.2655  0.0713 -0.4657
 3472DECAN   C634706   7.488   2.852   4.034  0.2087 -0.4744 -0.1063
 3472DECAN   C734707   7.601   2.748   4.047  0.8769  0.3113  0.4149
 3472DECAN   C834708   7.596   2.637   3.940 -0.3791  0.2049  0.5753
 3472DECAN   C934709   7.704   2.529   3.958 -0.7826 -0.3358 -0.2110
 3472DECAN  C1034710   7.719   2.425   3.845 -0.4710 -0.1768 -0.3185
 3473DECAN   C134711   5.429   2.586   6.327  0.3102  0.2685  0.1176
 3473DECAN   C234712   5.578   2.581   6.288  0.2205 -0.1096 -0.1745
 3473DECAN   C334713   5.673   2.597   6.408  0.1498  0.5447 -0.2024
 3473DECAN   C434714   5.823   2.592   6.371  0.3550 -0.1842  0.6916
 3473DECAN   C534715   5.910   2.581   6.498  0.6116 -0.6631  0.4727
 3473DECAN   C634716   6.062   2.589   6.471  0.4931  0.2227  0.0378
 3473DECAN   C734717   6.138   2.577   6.604  0.2064  0.3174  0.2115
 3473DECAN   C834718   6.288   2.606   6.625  0.3506 -0.4307  0.2405
 3473DECAN   C934719   6.375   2.512   6.539  0.1711 -0.3383 -0.0413
 3473DECAN  C1034720   6.377   2.375   6.609  0.1493 -0.0355  0.5559
 3474DECAN   C134721   3.361   3.360   6.958 -0.0571 -0.2491 -0.7869
 3474DECAN   C234722   3.262   3.242   6.966 -0.2170 -0.0511  0.3437
 3474DECAN   C334723   3.119   3.287   6.932  0.0086  0.0552 -0.4917
 3474DECAN   C434724   3.087   3.346   6.794 -0.2174  0.4624 -0.2669
 3474DECAN   C534725   2.936   3.378   6.785 -0.2941  0.1364 -0.1481
 3474DECAN   C634726   2.916   3.411   6.636  0.0563 -0.1776 -0.2655
 3474DECAN   C734727   2.772   3.401   6.583 -0.0954  0.0025  0.1179
 3474DECAN   C834728   2.676   3.487   6.668 -0.7070 -0.5627  0.0035
 3474DECAN   C934729   2.612   3.412   6.787 -0.1196 -0.4634  0.3831
 3474DECAN  C1034730   2.530   3.473   6.902 -0.3644 -0.0126 -0.0253
 3475DECAN   C134731   7.999  10.937  14.034 -0.0461  0.1317  0.3169
 3475DECAN   C234732   8.148  10.896  14.028 -0.0535  0.1095  0.2763
 3475DECAN   C334733   8.240  11.018  14.009 -0.1378  0.1498  0.1366
 3475DECAN   C434734   8.220  11.086  13.872 -0.4614 -0.3057 -0.0449
 3475DECAN   C534735   8.337  11.173  13.824 -0.6549  0.3402  0.6271
 3475DECAN   C634736   8.328  11.193  13.671 -0.7776  0.0912  0.6017
 3475DECAN   C734737   8.340  11.051  13.611 -0.2095  0.3197  0.1679
 3475DECAN   C834738   8.255  11.035  13.484 -0.1015  0.1230  0.1194
 3475DECAN   C934739   8.256  10.897  13.415  0.5402  0.3452 -0.3230
 3475DECAN  C1034740   8.158  10.892  13.297  0.3380 -0.5883 -0.1180
 3476DECAN   C134741   1.842   9.457  12.762  0.0045 -0.3956 -0.8444
 3476DECAN   C234742   1.696   9.416  12.734 -0.3673  0.3233  0.0036
 3476DECAN   C334743   1.663   9.276  12.790  0.4601  0.0583 -0.1562
 3476DECAN   C434744   1.533   9.212  12.737  0.1640  0.3103  0.2503
 3476DECAN   C534745   1.513   9.078  12.811 -0.3564  0.0371 -0.3782
 3476DECAN   C634746   1.398   8.994  12.752 -0.1609 -0.4368 -0.0847
 3476DECAN   C734747   1.401   8.979  12.599 -0.0668 -0.3459 -0.0916
 3476DECAN   C834748   1.303   8.874  12.543 -0.0987  0.0597 -0.8000
 3476DECAN   C934749   1.363   8.734  12.565 -0.0696  0.2515  0.3965
 3476DECAN  C1034750   1.499   8.694  12.508 -0.4362 -0.4493  0.0078
 3477DECAN   C134751   3.008   4.248   4.035  0.0845  0.3595 -0.5188
 3477DECAN   C234752   3.132   4.160   4.010 -0.0731 -0.1896  0.5645
 3477DECAN   C334753   3.107   4.008   4.005  0.6879 -0.3133  0.4146
 3477DECAN   C434754   3.229   3.932   3.950  0.2158 -0.3715 -0.5639
 3477DECAN   C534755   3.194   3.783   3.938 -0.4032 -0.2297 -0.5331
 3477DECAN   C634756   3.302   3.703   3.862 -0.2153 -0.7296  0.2529
 3477DECAN   C734757   3.285   3.551   3.843  0.1500 -0.7773  0.2968
 3477DECAN   C834758   3.393   3.464   3.776  0.5397 -0.0890  0.0222
 3477DECAN   C934759   3.375   3.313   3.757  0.4638 -0.0618 -0.1252
 3477DECAN  C1034760   3.507   3.241   3.724  0.4798 -0.4175  0.6983
 3478DECAN   C134761   9.465   2.185  12.678  0.4784 -0.0825  0.0800
 3478DECAN   C234762   9.586   2.278  12.654  0.1089  0.3072 -0.3051
 3478DECAN   C334763   9.629   2.291  12.507  0.0068  0.4728 -0.3199
 3478DECAN   C434764   9.725   2.405  12.469  0.6117  0.1906  0.3428
 3478DECAN   C534765   9.776   2.381  12.326  0.5182 -0.4958  0.4215
 3478DECAN   C634766   9.889   2.477  12.284  0.0584 -0.0995  0.0654
 3478DECAN   C734767   9.962   2.428  12.158 -0.1279  0.5622 -0.2997
 3478DECAN   C834768  10.094   2.493  12.113  0.3721 -0.4588 -0.3257
 3478DECAN   C934769  10.152   2.426  11.987  0.7299 -0.2990 -0.2477
 3478DECAN  C1034770  10.062   2.463  11.867 -0.3529  0.1928  0.7007
 3479DECAN   C134771  10.648   2.496   7.939 -0.0953  0.4786  0.0912
 3479DECAN   C234772  10.588   2.444   7.807 -0.5597  0.1573  0.4271
 3479DECAN   C334773  10.519   2.306   7.816  0.0971 -0.2427 -0.4952
 3479DECAN   C434774  10.382   2.306   7.885  0.0184 -0.0874 -0.6489
 3479DECAN   C534775  10.329   2.163   7.909 -0.0285  0.0001 -0.2136
 3479DECAN   C634776  10.189   2.186   7.970 -0.1585 -0.1412 -0.4557
 3479DECAN   C734777  10.113   2.054   7.991 -0.0673 -0.1970 -0.4716
 3479DECAN   C834778  10.012   2.066   8.108 -0.1010 -0.0378 -0.5182
 3479DECAN   C934779   9.934   1.936   8.134  0.1371 -0.1396 -0.3064
 3479DECAN  C1034780   9.821   1.921   8.238  0.4201 -0.3575 -0.0303
 3480DECAN   C134781   3.278   9.616   6.355 -0.1634  0.3010  0.1609
 3480DECAN   C234782   3.277   9.717   6.239  0.3473  0.1453  0.0162
 3480DECAN   C334783   3.409   9.793   6.219  0.5794 -0.1208  0.5278
 3480DECAN   C434784   3.461   9.770   6.076 -0.2874 -0.1308  0.2064
 3480DECAN   C534785   3.550   9.885   6.024  0.0990 -0.3415  0.3983
 3480DECAN   C634786   3.680   9.902   6.104  0.1346 -0.4301  0.3595
 3480DECAN   C734787   3.759  10.023   6.051 -0.8970 -0.2856 -0.8883
 3480DECAN   C834788   3.685  10.155   6.027 -0.2831  0.2567  0.1278
 3480DECAN   C934789   3.759  10.245   5.926  0.1140  0.0280  0.2158
 3480DECAN  C1034790   3.768  10.181   5.786  0.2285  0.4573  0.0276
 3481DECAN   C134791   2.476   7.745  13.678 -0.5852  0.1033 -0.2341
 3481DECAN   C234792   2.584   7.852  13.703  0.1056 -0.6508  0.0272
 3481DECAN   C334793   2.676   7.820  13.823  0.0525 -0.1482  0.2033
 3481DECAN   C434794   2.807   7.900  13.834 -0.0746  0.0225  0.5049
 3481DECAN   C534795   2.901   7.834  13.937  0.0262 -0.2377  0.2479
 3481DECAN   C634796   3.035   7.906  13.959 -0.0655  0.0913 -0.2319
 3481DECAN   C734797   3.103   7.884  14.096  0.2203 -0.2760 -0.4300
 3481DECAN   C834798   3.243   7.949  14.105  0.1144 -0.1048  0.0008
 3481DECAN   C934799   3.234   8.095  14.151  0.1264 -0.1339  0.0957
 3481DECAN  C1034800   3.368   8.171  14.153  0.2405 -0.3393  0.1858
 3482DECAN   C134801   7.905   0.882   5.083  0.4390  0.4118  0.7981
 3482DECAN   C234802   8.019   0.913   4.984 -0.2840  0.4057 -0.0527
 3482DECAN   C334803   8.119   1.026   5.017 -0.3484  0.3644  0.2907
 3482DECAN   C434804   8.236   1.048   4.919 -0.2768  0.1060  0.3147
 3482DECAN   C534805   8.203   1.082   4.772  0.1027  0.1026  0.2294
 3482DECAN   C634806   8.328   1.082   4.682 -0.3249  0.5409 -0.3695
 3482DECAN   C734807   8.304   1.127   4.536 -0.0703  0.0600 -0.5625
 3482DECAN   C834808   8.425   1.151   4.445  0.3285 -0.1097 -0.0850
 3482DECAN   C934809   8.377   1.219   4.314 -0.8095  0.4129  0.5861
 3482DECAN  C1034810   8.306   1.354   4.329 -0.4375  0.7427 -0.5888
 3483DECAN   C134811   4.192   2.521   6.203 -0.2222 -0.4133 -0.0910
 3483DECAN   C234812   4.058   2.572   6.147 -0.0182  0.3326  0.0915
 3483DECAN   C334813   3.937   2.533   6.236 -0.1278  0.0764 -0.1693
 3483DECAN   C434814   3.803   2.580   6.178 -0.0353  0.5092 -0.0359
 3483DECAN   C534815   3.690   2.500   6.246  0.3186 -0.0457 -0.0960
 3483DECAN   C634816   3.546   2.546   6.216  0.0991  0.2087  1.2909
 3483DECAN   C734817   3.527   2.690   6.266  0.1281  0.5432  0.3477
 3483DECAN   C834818   3.519   2.712   6.418  0.3928  0.2249  0.4101
 3483DECAN   C934819   3.466   2.855   6.443  0.1976  0.3221 -0.5231
 3483DECAN  C1034820   3.454   2.894   6.591  0.2964 -0.0599 -0.4128
 3484DECAN   C134821   8.790   5.253  14.006  0.3429  0.0616  0.5875
 3484DECAN   C234822   8.867   5.324  14.119  0.5157 -0.2372  0.6612
 3484DECAN   C334823   8.973   5.429  14.083 -0.2941  0.3567 -0.0419
 3484DECAN   C434824   9.052   5.490  14.201  0.0798 -0.0773 -0.0660
 3484DECAN   C534825   9.114   5.627  14.172  0.1663 -0.0226  0.3576
 3484DECAN   C634826   9.189   5.691  14.290  0.1421  0.0882  0.3130
 3484DECAN   C734827   9.293   5.792  14.238 -0.1378  0.1115 -0.2108
 3484DECAN   C834828   9.367   5.874  14.345  0.0901 -0.4453  0.0632
 3484DECAN   C934829   9.477   5.970  14.297 -0.2605  0.0172  0.1748
 3484DECAN  C1034830   9.540   6.043  14.418 -0.1884  0.3375 -0.0535
 3485DECAN   C134831   3.457   2.386   8.342  0.4432  0.0920 -0.0448
 3485DECAN   C234832   3.529   2.288   8.437 -0.1092 -0.4899 -0.2266
 3485DECAN   C334833   3.673   2.330   8.470 -0.1284 -0.4271 -0.2231
 3485DECAN   C434834   3.736   2.243   8.580  0.0190 -0.2491 -0.1667
 3485DECAN   C534835   3.878   2.297   8.605 -0.1337  0.3609 -0.5903
 3485DECAN   C634836   3.933   2.226   8.730 -0.1783  0.3915 -0.5542
 3485DECAN   C734837   4.065   2.290   8.779 -0.2503 -0.0052  0.1676
 3485DECAN   C834838   4.113   2.238   8.916  0.2500  0.0471  0.0120
 3485DECAN   C934839   4.252   2.283   8.963  0.2583 -0.1373  0.1670
 3485DECAN  C1034840   4.311   2.207   9.083  0.0902 -0.2240  0.1944
 3486DECAN   C134841   7.094   8.238  11.855 -0.1304 -0.4897 -0.1691
 3486DECAN   C234842   7.084   8.352  11.957  0.0767 -0.0520 -0.6324
 3486DECAN   C334843   7.147   8.479  11.896  0.2773  0.3785  0.4425
 3486DECAN   C434844   7.103   8.603  11.975 -0.3625  0.6180 -0.2729
 3486DECAN   C534845   7.101   8.726  11.882  0.4193  0.3222 -0.6868
 3486DECAN   C634846   7.088   8.852  11.970 -0.1760 -0.2307  0.0334
 3486DECAN   C734847   7.070   8.973  11.877  0.4496 -0.7200 -0.7350
 3486DECAN   C834848   7.032   9.104  11.948  1.0552 -0.6046 -0.6120
 3486DECAN   C934849   7.108   9.100  12.082  0.4747  0.1869 -0.2446
 3486DECAN  C1034850   7.103   9.226  12.169  0.4761  0.1819 -0.2377
 3487DECAN   C134851   4.146   7.421   7.090  0.4312 -1.3340  0.5031
 3487DECAN   C234852   4.110   7.402   6.942 -0.0144  0.1683  0.3963
 3487DECAN   C334853   4.003   7.293   6.920  0.1074 -0.0593  0.9324
 3487DECAN   C434854   3.866   7.328   6.982 -0.0273  0.0333  0.5851
 3487DECAN   C534855   3.753   7.225   6.965  0.0999 -0.0416  0.1761
 3487DECAN   C634856   3.618   7.280   7.013 -0.0773 -0.2151 -0.1217
 3487DECAN   C734857   3.484   7.210   6.981 -0.5505  0.4551  0.3543
 3487DECAN   C834858   3.360   7.299   7.005 -0.6118  0.3500  0.4298
 3487DECAN   C934859   3.227   7.233   6.964 -0.2493 -0.1614  0.0472
 3487DECAN  C1034860   3.094   7.309   6.977 -0.3651 -0.3076 -0.2709
 3488DECAN   C134861   8.406   5.874  10.193 -0.3417  0.0270 -0.0728
 3488DECAN   C234862   8.411   5.843  10.344 -0.5108  0.3356 -0.0023
 3488DECAN   C334863   8.301   5.739  10.372  0.0520 -0.3737 -0.3627
 3488DECAN   C434864   8.282   5.700  10.520 -0.0104 -0.6665 -0.4488
 3488DECAN   C534865   8.188   5.581  10.547  0.1970 -0.8414 -0.4889
 3488DECAN   C634866   8.192   5.507  10.682  0.6889  0.2703  0.1227
 3488DECAN   C734867   8.159   5.597  10.802  0.3216  0.0782  0.1678
 3488DECAN   C834868   8.024   5.671  10.798  0.1146 -0.3200 -0.2030
 3488DECAN   C934869   7.912   5.576  10.748 -0.1937 -0.3867  0.6039
 3488DECAN  C1034870   7.775   5.647  10.748 -0.1380 -0.2782  0.5515
 3489DECAN   C134871   8.283   5.491  12.969 -0.1195 -0.2374  0.2757
 3489DECAN   C234872   8.402   5.579  13.012 -0.1419  0.1048 -0.3476
 3489DECAN   C334873   8.501   5.490  13.089 -0.5328  0.1810  0.2511
 3489DECAN   C434874   8.582   5.404  12.990 -0.4003  0.1208  0.4099
 3489DECAN   C534875   8.684   5.312  13.060 -0.1591 -0.3860 -0.5854
 3489DECAN   C634876   8.632   5.182  13.124 -0.4853 -0.0378 -0.1349
 3489DECAN   C734877   8.711   5.150  13.252 -0.6244  0.4892  0.0843
 3489DECAN   C834878   8.845   5.080  13.224 -0.5893  0.7016 -0.2858
 3489DECAN   C934879   8.944   5.168  13.145  0.0696 -0.0358 -0.2874
 3489DECAN  C1034880   9.074   5.100  13.098  0.1070 -0.0272 -0.1943
 3490DECAN   C134881   9.562   2.107  14.903 -0.7502  0.0536 -0.2731
 3490DECAN   C234882   9.573   1.964  14.847  0.3855 -0.0102  0.0822
 3490DECAN   C334883   9.527   1.856  14.946 -0.2109  0.3750  0.2312
 3490DECAN   C434884   9.529   1.711  14.895 -0.5506  0.4393  0.0390
 3490DECAN   C534885   9.456   1.613  14.989  0.4442 -0.3575 -0.0053
 3490DECAN   C634886   9.466   1.468  14.941  0.1490 -0.1975 -0.5478
 3490DECAN   C734887   9.420   1.452  14.794 -0.3433 -0.7925 -0.3349
 3490DECAN   C834888   9.441   1.306  14.749 -0.0074 -0.8196 -0.1003
 3490DECAN   C934889   9.408   1.301  14.599  0.3294 -0.1192 -0.1995
 3490DECAN  C1034890   9.446   1.167  14.532  0.3894 -0.2067  0.0127
 3491DECAN   C134891   7.184   3.126  15.068 -0.6402  0.3378 -0.5900
 3491DECAN   C234892   7.326   3.163  15.020 -0.1387 -0.8645 -0.0785
 3491DECAN   C334893   7.312   3.275  14.914  0.3349 -0.0844  0.6662
 3491DECAN   C434894   7.445   3.322  14.853  0.0453 -0.0138  0.0814
 3491DECAN   C534895   7.521   3.212  14.777  0.4558  0.1016  0.3220
 3491DECAN   C634896   7.422   3.135  14.688  0.0121  0.4919  0.4696
 3491DECAN   C734897   7.464   3.021  14.593  0.1116  0.2931  0.7492
 3491DECAN   C834898   7.522   2.898  14.665  0.4311 -0.2179 -0.3580
 3491DECAN   C934899   7.663   2.864  14.613  0.5703 -0.1204 -0.0415
 3491DECAN  C1034900   7.687   2.861  14.461  0.1944 -0.5602 -0.0926
 3492DECAN   C134901   2.157   0.301  13.770 -0.6835  0.2673  0.3420
 3492DECAN   C234902   2.075   0.198  13.689  0.1299  0.1093 -0.2991
 3492DECAN   C334903   1.928   0.176  13.729  0.1978 -0.3060 -0.2751
 3492DECAN   C434904   1.865   0.081  13.626  0.1253 -0.2831 -0.2516
 3492DECAN   C534905   1.713   0.055  13.638  0.0550  0.1173 -0.2557
 3492DECAN   C634906   1.665  11.203  13.528  0.3929 -0.3317 -0.0202
 3492DECAN   C734907   1.514  11.175  13.520  0.3892 -0.3736  0.2139
 3492DECAN   C834908   1.461  11.110  13.650 -0.3166 -0.5000 -0.1320
 3492DECAN   C934909   1.307  11.099  13.655 -0.4427  1.1240  0.1105
 3492DECAN  C1034910   1.248  11.000  13.554  0.2953  0.3065  0.4606
 3493DECAN   C134911   8.611   2.104   9.015 -0.1792 -0.1761  0.2414
 3493DECAN   C234912   8.681   2.116   8.879 -0.5377  0.0925  0.0779
 3493DECAN   C334913   8.796   2.022   8.837 -0.2562  0.3807  0.2058
 3493DECAN   C434914   8.908   2.080   8.747 -0.6631  0.2546 -0.3879
 3493DECAN   C534915   8.980   1.964   8.675  0.2681  0.5397  0.0686
 3493DECAN   C634916   9.094   2.015   8.585  0.3035 -0.4554 -0.4606
 3493DECAN   C734917   9.198   2.100   8.661  0.3591 -0.3327 -0.6739
 3493DECAN   C834918   9.325   2.139   8.582  0.4885 -0.6006 -0.6015
 3493DECAN   C934919   9.447   2.183   8.664 -0.1996 -0.1695  0.2022
 3493DECAN  C1034920   9.545   2.268   8.581  0.3448 -0.3352  0.6722
 3494DECAN   C134921   4.407   4.800   8.422  0.2590  0.1241  0.1310
 3494DECAN   C234922   4.428   4.759   8.569 -0.3219 -0.2836  0.1050
 3494DECAN   C334923   4.305   4.756   8.661 -0.5295  0.1720 -0.1552
 3494DECAN   C434924   4.250   4.898   8.681 -0.6165  0.0794  0.2664
 3494DECAN   C534925   4.135   4.936   8.586 -0.2792  0.4557  0.0023
 3494DECAN   C634926   4.104   5.085   8.569 -0.2421  0.4179 -0.4006
 3494DECAN   C734927   4.001   5.111   8.457 -0.0482 -0.0564 -0.6924
 3494DECAN   C834928   3.983   5.262   8.436  0.0320 -0.0135 -0.4622
 3494DECAN   C934929   3.860   5.291   8.348 -0.3018  0.1658  0.0615
 3494DECAN  C1034930   3.823   5.439   8.330  0.5997  0.4764  0.6931
 3495DECAN   C134931   9.248   2.121  14.535  0.6111 -0.4063  0.3650
 3495DECAN   C234932   9.376   2.171  14.466  0.5428 -0.4217  0.2254
 3495DECAN   C334933   9.454   2.256  14.569  0.0086 -0.0508  0.3299
 3495DECAN   C434934   9.596   2.296  14.524 -0.4357  0.2691 -0.8189
 3495DECAN   C534935   9.678   2.339  14.646 -0.5922  0.3563 -0.7423
 3495DECAN   C634936   9.641   2.467  14.723 -0.6677  0.0499 -0.2609
 3495DECAN   C734937   9.667   2.582  14.623 -0.1660 -0.0355 -0.2343
 3495DECAN   C834938   9.572   2.590  14.502 -0.3192 -0.1143 -0.1214
 3495DECAN   C934939   9.617   2.691  14.394 -0.1407  0.0116  0.0698
 3495DECAN  C1034940   9.670   2.830  14.432  0.9737 -0.3538 -0.0885
 3496DECAN   C134941   6.499   2.158  10.021  0.5272  0.1127  0.0060
 3496DECAN   C234942   6.451   2.250   9.907 -0.1006  0.0932  0.2544
 3496DECAN   C334943   6.348   2.192   9.808 -0.0821  0.0230  0.2764
 3496DECAN   C434944   6.338   2.269   9.675  0.9432  0.0117  0.1862
 3496DECAN   C534945   6.346   2.421   9.694  0.1431  0.0577  0.1590
 3496DECAN   C634946   6.375   2.499   9.565 -0.0443 -0.6155 -0.2948
 3496DECAN   C734947   6.267   2.473   9.459 -0.3818 -0.5080  0.0186
 3496DECAN   C834948   6.256   2.331   9.400  0.6677 -0.0999 -1.2263
 3496DECAN   C934949   6.129   2.297   9.318 -0.1720  0.2333 -0.0942
 3496DECAN  C1034950   6.125   2.154   9.262  0.4784  0.4394 -0.6964
 3497DECAN   C134951   4.906   2.698   9.039 -0.5583 -0.3759 -0.6184
 3497DECAN   C234952   4.862   2.801   8.934 -0.2188  0.2510 -0.1503
 3497DECAN   C334953   4.953   2.925   8.945  0.0711  0.0141  0.1272
 3497DECAN   C434954   4.920   3.031   8.839 -0.0631  0.1579  0.3139
 3497DECAN   C534955   4.996   3.165   8.850 -0.1754  0.2209  0.3222
 3497DECAN   C634956   5.147   3.140   8.853 -0.0944  0.6918  0.3214
 3497DECAN   C734957   5.234   3.267   8.859  0.7602  0.1120  0.4674
 3497DECAN   C834958   5.162   3.372   8.946  0.4613 -0.2102  0.6128
 3497DECAN   C934959   5.227   3.512   8.939  0.0788 -0.0869 -0.7506
 3497DECAN  C1034960   5.123   3.617   8.983  0.1828 -0.4487  0.3984
 3498DECAN   C134961   7.994   0.503   4.175  0.0589 -0.2476  0.4644
 3498DECAN   C234962   7.900   0.599   4.099  0.4332  0.2312  0.6036
 3498DECAN   C334963   7.964   0.643   3.966 -0.0857  0.0122  0.2797
 3498DECAN   C434964   8.102   0.710   3.979  0.1083 -0.4513  0.6315
 3498DECAN   C534965   8.118   0.841   4.059  0.4027 -0.2622  0.2669
 3498DECAN   C634966   8.256   0.905   4.033  0.0202  0.5992  0.3215
 3498DECAN   C734967   8.375   0.809   4.049 -0.1941  0.3019  0.1513
 3498DECAN   C834968   8.505   0.890   4.064 -0.1076  0.2113 -0.1097
 3498DECAN   C934969   8.642   0.820   4.075 -0.0108  0.3350 -0.5091
 3498DECAN  C1034970   8.747   0.929   4.105  0.6785 -0.4656  0.0630
 3499DECAN   C134971   7.211   7.737   8.203  0.1155 -0.3674  0.1354
 3499DECAN   C234972   7.291   7.636   8.288  0.4065  0.1708  0.5064
 3499DECAN   C334973   7.318   7.500   8.220 -0.1996  0.1882  0.2250
 3499DECAN   C434974   7.196   7.414   8.183  0.6144 -0.6424 -0.5528
 3499DECAN   C534975   7.104   7.498   8.093  0.4862 -0.4554 -0.2483
 3499DECAN   C634976   6.983   7.420   8.037  0.1449  0.0090 -0.1663
 3499DECAN   C734977   6.896   7.526   7.967 -0.0324 -0.1563 -0.1943
 3499DECAN   C834978   6.782   7.457   7.889  0.1563 -0.2699 -0.3733
 3499DECAN   C934979   6.833   7.388   7.762  0.3384  0.0295 -0.4638
 3499DECAN  C1034980   6.717   7.340   7.673  0.3545 -0.0962 -0.4175
 3500DECAN   C134981   5.885   5.040  10.421 -0.3034  0.7933 -0.7752
 3500DECAN   C234982   5.996   5.115  10.345  0.3240  0.7288  0.0551
 3500DECAN   C334983   6.086   5.025  10.258 -0.7451 -0.3287  0.0180
 3500DECAN   C434984   6.198   5.110  10.194 -0.5044 -0.4403  0.2910
 3500DECAN   C534985   6.144   5.209  10.089 -0.0397 -0.3802  0.1101
 3500DECAN   C634986   6.080   5.331  10.158  0.0114 -0.2682 -0.0419
 3500DECAN   C734987   6.013   5.424  10.055  0.4333  0.1330  0.0406
 3500DECAN   C834988   5.942   5.545  10.118  0.3020  0.2174 -0.2703
 3500DECAN   C934989   5.851   5.632  10.029 -0.2867 -0.2175 -0.0984
 3500DECAN  C1034990   5.786   5.749  10.106 -0.2071 -0.1666 -0.1087
 3501DECAN   C134991   3.814   5.514   5.986 -0.2493 -0.4208  0.1911
 3501DECAN   C234992   3.823   5.665   5.958  0.8823 -0.4899  0.1257
 3501DECAN   C334993   3.921   5.748   6.042  0.3020  0.1083  0.2267
 3501DECAN   C434994   4.064   5.706   6.005  0.2788  0.3311 -0.1158
 3501DECAN   C534995   4.184   5.746   6.093  0.0421  0.2141  0.2618
 3501DECAN   C634996   4.314   5.679   6.046 -0.1286 -0.2932  0.5045
 3501DECAN   C734997   4.294   5.527   6.031 -0.5729 -0.1997  0.1401
 3501DECAN   C834998   4.241   5.459   6.159  0.1425 -0.1800  0.4489
 3501DECAN   C934999   4.215   5.310   6.128 -0.4685 -0.0038  0.1041
 3501DECAN  C1035000   4.127   5.283   6.005 -0.2556 -0.9899  0.1620
 3502DECAN   C135001  10.644   1.031   9.685 -0.3179 -0.2381 -0.0850
 3502DECAN   C235002  10.519   1.003   9.600 -0.3476 -0.6109  0.0774
 3502DECAN   C335003  10.400   0.950   9.682 -0.0814 -0.5497  0.5060
 3502DECAN   C435004  10.266   0.941   9.607  0.1265 -0.4972  0.1292
 3502DECAN   C535005  10.156   0.891   9.702 -0.0680 -0.0672  0.1316
 3502DECAN   C635006  10.017   0.879   9.636 -0.0054  0.3803 -0.0848
 3502DECAN   C735007   9.936   1.010   9.629  0.0305  0.4279  0.3619
 3502DECAN   C835008   9.796   0.988   9.567  0.3954  0.0014 -0.3139
 3502DECAN   C935009   9.751   1.102   9.473  0.1916  0.0316 -0.1790
 3502DECAN  C1035010   9.748   1.247   9.525  0.3917 -0.0290  0.0017
 3503DECAN   C135011   8.806   1.835   4.975  0.0768 -0.0298  1.4503
 3503DECAN   C235012   8.919   1.817   4.871 -0.8232 -0.0304  0.4565
 3503DECAN   C335013   8.964   1.947   4.801 -0.3873 -0.2471  0.3305
 3503DECAN   C435014   9.083   1.930   4.705 -0.1094  0.0312  0.6280
 3503DECAN   C535015   9.139   2.051   4.628  0.0704 -0.3618  0.1308
 3503DECAN   C635016   9.264   2.016   4.547  0.1939  0.2870  0.0336
 3503DECAN   C735017   9.338   2.145   4.508  0.1274  0.1315 -0.6235
 3503DECAN   C835018   9.481   2.107   4.466  0.0992 -0.3853 -0.2628
 3503DECAN   C935019   9.543   2.003   4.561 -0.0644 -0.1898  0.0590
 3503DECAN  C1035020   9.501   1.859   4.525  0.6696 -0.2271 -0.6629
 3504DECAN   C135021   7.619   2.844  11.570  0.3396 -0.0185 -0.0872
 3504DECAN   C235022   7.556   2.902  11.443 -0.6352  0.3833  0.5659
 3504DECAN   C335023   7.486   3.037  11.468 -0.4372  0.4568  0.7232
 3504DECAN   C435024   7.588   3.148  11.498  0.2003  0.0679  0.0395
 3504DECAN   C535025   7.507   3.263  11.562  0.5141  0.0686  0.4402
 3504DECAN   C635026   7.595   3.381  11.608  0.3951  0.4430 -0.2771
 3504DECAN   C735027   7.519   3.496  11.676 -0.0836 -0.2747  0.4255
 3504DECAN   C835028   7.608   3.621  11.682  0.1053 -0.3990  0.2496
 3504DECAN   C935029   7.572   3.720  11.795  0.3209  0.0669 -0.0880
 3504DECAN  C1035030   7.569   3.659  11.936 -0.1833  0.3798  0.0412
 3505DECAN   C135031   9.684   6.713   5.332  0.3361 -0.5933  0.2385
 3505DECAN   C235032   9.668   6.682   5.482 -0.3483 -0.5865  0.1708
 3505DECAN   C335033   9.661   6.535   5.528 -0.4512 -0.5470  0.2807
 3505DECAN   C435034   9.663   6.541   5.682 -0.0348 -0.5674  0.2776
 3505DECAN   C535035   9.645   6.413   5.766 -0.4476 -0.4591  0.3557
 3505DECAN   C635036   9.647   6.442   5.917  0.1471  1.5817 -0.0166
 3505DECAN   C735037   9.785   6.494   5.961  0.6757  0.5692 -0.4535
 3505DECAN   C835038   9.901   6.415   5.897  0.7501 -0.1607  0.5498
 3505DECAN   C935039   9.896   6.264   5.925 -0.1679 -0.2443 -0.0107
 3505DECAN  C1035040  10.011   6.184   5.861 -0.3557  0.1749 -0.8925
 3506DECAN   C135041   7.174   1.127  10.796 -0.1023  0.2324 -0.0475
 3506DECAN   C235042   7.322   1.168  10.804  0.0968 -0.6002  0.6218
 3506DECAN   C335043   7.339   1.292  10.893 -0.9923  0.3324 -0.4394
 3506DECAN   C435044   7.324   1.426  10.818 -0.0266  0.4141 -0.5021
 3506DECAN   C535045   7.362   1.550  10.902 -0.3127  0.0023  0.2497
 3506DECAN   C635046   7.317   1.686  10.845 -1.0841 -0.2211  0.3181
 3506DECAN   C735047   7.288   1.796  10.948 -0.4556 -0.1155  0.3834
 3506DECAN   C835048   7.253   1.930  10.881 -0.3931  0.0760  0.7266
 3506DECAN   C935049   7.264   2.050  10.976 -0.1392  0.3055  0.4110
 3506DECAN  C1035050   7.167   2.043  11.096 -0.3638 -0.2857  0.1975
 3507DECAN   C135051   7.539   2.436  10.466  0.5940  0.1149  0.0152
 3507DECAN   C235052   7.680   2.376  10.484  0.3562 -0.3381  0.4031
 3507DECAN   C335053   7.770   2.459  10.577  0.0033  0.1141  0.3463
 3507DECAN   C435054   7.726   2.469  10.725  0.1011 -0.7834  0.4410
 3507DECAN   C535055   7.586   2.532  10.739  0.6680  0.5461  0.3090
 3507DECAN   C635056   7.542   2.502  10.884  0.2478 -0.8739 -0.0949
 3507DECAN   C735057   7.397   2.540  10.918  0.5460  0.4354 -0.2274
 3507DECAN   C835058   7.284   2.465  10.846  0.3857 -0.3866  0.8530
 3507DECAN   C935059   7.143   2.527  10.849  0.5335  0.0148 -0.2468
 3507DECAN  C1035060   7.029   2.444  10.787  0.3855 -0.0376  0.0951
 3508DECAN   C135061   9.263   1.364  12.572  0.0270 -0.5903 -0.4101
 3508DECAN   C235062   9.120   1.419  12.559  0.0546 -0.3456  0.2970
 3508DECAN   C335063   9.018   1.321  12.498  0.0533 -0.0036 -0.2609
 3508DECAN   C435064   8.876   1.381  12.491  0.2436  0.4384 -0.3705
 3508DECAN   C535065   8.763   1.277  12.480  0.0332  0.6591 -0.2884
 3508DECAN   C635066   8.789   1.171  12.372 -0.3858 -0.0370  0.2859
 3508DECAN   C735067   8.907   1.080  12.410 -0.4604 -0.2244  0.0696
 3508DECAN   C835068   8.924   0.943  12.341 -0.0344  0.0656 -0.4111
 3508DECAN   C935069   8.937   0.937  12.187 -0.6936 -0.2041 -0.4601
 3508DECAN  C1035070   9.044   1.031  12.128 -0.0726 -0.5406  0.1112
 3509DECAN   C135071   4.030   6.560   7.038  0.2411  0.2196 -0.8298
 3509DECAN   C235072   4.078   6.687   6.966  0.2314  0.6576 -0.0792
 3509DECAN   C335073   4.159   6.788   7.050  0.0091  0.2889  0.5864
 3509DECAN   C435074   4.223   6.894   6.959 -0.4906 -0.0030 -0.1180
 3509DECAN   C535075   4.313   6.976   7.053 -0.2177 -0.1680 -0.2341
 3509DECAN   C635076   4.392   7.088   6.982  0.7593 -0.4861  0.3242
 3509DECAN   C735077   4.462   7.195   7.068 -0.4768  0.4330  0.2185
 3509DECAN   C835078   4.533   7.312   6.997  0.2254 -0.0900  0.0500
 3509DECAN   C935079   4.647   7.378   7.076 -0.2331  0.0686  0.5842
 3509DECAN  C1035080   4.695   7.508   7.008 -0.2274 -0.4460 -0.4129
 3510DECAN   C135081   4.741   8.509   6.599  0.0981  0.1358 -0.2524
 3510DECAN   C235082   4.798   8.567   6.468 -0.1971  0.0107 -0.4392
 3510DECAN   C335083   4.926   8.647   6.501 -0.1856 -0.0338 -0.3785
 3510DECAN   C435084   4.971   8.728   6.378  0.5765  0.0982 -0.0183
 3510DECAN   C535085   5.093   8.817   6.407  0.2680  0.4405  0.2503
 3510DECAN   C635086   5.163   8.860   6.277  0.0593  0.1552  0.0420
 3510DECAN   C735087   5.265   8.975   6.283 -0.1596  0.3512  0.0022
 3510DECAN   C835088   5.298   9.049   6.152  0.1844  0.2956  0.0541
 3510DECAN   C935089   5.431   9.127   6.160  0.2428  0.1639  0.3654
 3510DECAN  C1035090   5.559   9.049   6.195  0.0416 -0.0771  0.5797
 3511DECAN   C135091   6.093   0.306   8.595  0.2314  0.1940 -0.2188
 3511DECAN   C235092   5.980   0.338   8.495 -0.0484  0.2406  0.1090
 3511DECAN   C335093   6.015   0.438   8.384 -0.2598  0.3012  0.0976
 3511DECAN   C435094   6.059   0.572   8.446  0.6175  0.1989 -0.2895
 3511DECAN   C535095   6.086   0.675   8.335  0.6003  0.1216 -0.3663
 3511DECAN   C635096   5.965   0.767   8.311  0.3209 -0.2343 -0.3380
 3511DECAN   C735097   5.853   0.697   8.232  0.0370 -0.2760  0.0978
 3511DECAN   C835098   5.758   0.802   8.171  0.0002 -0.5323 -0.2906
 3511DECAN   C935099   5.836   0.890   8.072 -0.1370  0.0839  0.1389
 3511DECAN  C1035100   5.759   0.996   7.991 -0.1841 -0.1677 -0.1481
 3512DECAN   C135101   8.233   3.733   9.566 -0.5058  0.8243 -0.9203
 3512DECAN   C235102   8.297   3.861   9.623  0.3668  0.0155 -0.0520
 3512DECAN   C335103   8.356   3.843   9.764 -0.3984 -0.4082  0.2215
 3512DECAN   C435104   8.438   3.962   9.817 -0.4763 -0.1402 -0.2563
 3512DECAN   C535105   8.556   4.018   9.736 -0.4386  0.1495 -0.0065
 3512DECAN   C635106   8.617   4.141   9.805 -0.2168  0.3135 -0.4909
 3512DECAN   C735107   8.530   4.268   9.791 -0.3253  0.2731 -0.1830
 3512DECAN   C835108   8.579   4.400   9.853 -0.3597  0.1323  0.1465
 3512DECAN   C935109   8.497   4.529   9.831  0.1716  0.4241 -0.1349
 3512DECAN  C1035110   8.351   4.510   9.873  0.3469 -0.3343  0.1530
 3513DECAN   C135111   3.111   0.344   6.364 -0.1004 -0.4575  0.0127
 3513DECAN   C235112   3.037   0.431   6.261  0.2733 -0.1938 -0.0367
 3513DECAN   C335113   2.938   0.354   6.170  0.0736 -0.4550  0.4010
 3513DECAN   C435114   2.815   0.293   6.239 -0.1376  0.9082  1.2773
 3513DECAN   C535115   2.866   0.175   6.323 -0.1513  0.0540  0.1115
 3513DECAN   C635116   2.750   0.136   6.418 -0.1353  0.1024  0.1504
 3513DECAN   C735117   2.781   0.035   6.530  0.0025 -0.0086  0.0133
 3513DECAN   C835118   2.660  11.240   6.615 -0.1305  0.2692 -0.0467
 3513DECAN   C935119   2.697  11.143   6.729  0.1143  0.4004 -0.0143
 3513DECAN  C1035120   2.590  11.063   6.806  0.1044  0.2143 -0.2194
 3514DECAN   C135121   2.761   6.546  12.055  0.2124 -0.2263 -0.0100
 3514DECAN   C235122   2.760   6.664  11.955 -0.0188 -0.1081  0.1330
 3514DECAN   C335123   2.793   6.636  11.807  0.2143  0.0583  0.1521
 3514DECAN   C435124   2.915   6.543  11.796  0.3100  0.2308 -0.2485
 3514DECAN   C535125   2.943   6.506  11.649  0.0403  0.2314 -0.2992
 3514DECAN   C635126   3.040   6.386  11.652 -0.3394 -0.0711  0.2492
 3514DECAN   C735127   3.084   6.335  11.513 -0.0537 -0.0274  0.3258
 3514DECAN   C835128   3.138   6.440  11.414  0.0801 -0.1296  0.2897
 3514DECAN   C935129   3.160   6.383  11.273  0.3550  0.1974  0.1996
 3514DECAN  C1035130   3.182   6.494  11.169  0.3643 -0.2196 -0.2471
 3515DECAN   C135131   8.401   1.915   7.270  0.0184  0.1348  0.1124
 3515DECAN   C235132   8.311   1.812   7.341 -0.3838  0.6432  0.3441
 3515DECAN   C335133   8.182   1.783   7.261  0.0566  0.2992 -0.2528
 3515DECAN   C435134   8.074   1.708   7.342  0.4675 -0.3798 -0.3299
 3515DECAN   C535135   8.124   1.594   7.433  0.1487  0.0886  0.4440
 3515DECAN   C635136   8.027   1.544   7.542 -0.5811 -0.1259 -0.2853
 3515DECAN   C735137   8.071   1.409   7.601  0.0948  0.3457  0.3133
 3515DECAN   C835138   7.974   1.359   7.710  0.3183 -0.3087  0.2155
 3515DECAN   C935139   7.832   1.361   7.652  0.5948  0.2518 -0.4588
 3515DECAN  C1035140   7.805   1.270   7.530 -0.1802 -0.3918  0.1762
 3516DECAN   C135141   5.994   5.650   5.125 -0.6274 -0.3063 -0.1693
 3516DECAN   C235142   5.941   5.642   5.269 -0.1486 -0.0622  0.0221
 3516DECAN   C335143   6.056   5.612   5.368 -0.3146 -0.3802  0.1210
 3516DECAN   C435144   5.996   5.600   5.509 -0.1764  0.4736  0.2593
 3516DECAN   C535145   5.950   5.736   5.566 -0.0850  0.7374 -0.2918
 3516DECAN   C635146   5.875   5.719   5.699  0.4419 -0.2225 -0.1065
 3516DECAN   C735147   5.833   5.853   5.762  0.4870 -0.1463 -0.2390
 3516DECAN   C835148   5.766   5.838   5.900  0.3819 -0.1884 -0.2955
 3516DECAN   C935149   5.644   5.746   5.875  0.3723 -0.3262  0.2616
 3516DECAN  C1035150   5.544   5.712   5.988  0.2257 -0.2039  0.1697
 3517DECAN   C135151   4.360   1.760   8.405  0.2730  0.2871 -0.2475
 3517DECAN   C235152   4.208   1.742   8.384  0.0683  0.6609  0.8292
 3517DECAN   C335153   4.166   1.756   8.237 -0.6441  0.0076  0.9680
 3517DECAN   C435154   4.016   1.725   8.216 -0.2674 -1.3559  0.1372
 3517DECAN   C535155   3.984   1.714   8.066  0.1398  0.1938 -0.0810
 3517DECAN   C635156   3.845   1.662   8.025 -0.0330  0.3067  0.3653
 3517DECAN   C735157   3.839   1.604   7.883 -0.6700  0.6901  0.2291
 3517DECAN   C835158   3.700   1.575   7.822 -0.2670  0.3367 -0.5284
 3517DECAN   C935159   3.617   1.494   7.923  0.4277 -0.1442 -0.3317
 3517DECAN  C1035160   3.686   1.358   7.941 -0.4806 -0.5618  0.0462
 3518DECAN   C135161  10.587   3.580  11.997 -0.2804 -0.2155  0.0677
 3518DECAN   C235162  10.566   3.459  11.904  0.7150 -0.2899 -0.0698
 3518DECAN   C335163  10.549   3.318  11.962 -0.4389 -0.1148  0.0373
 3518DECAN   C435164  10.558   3.204  11.859  0.0136  0.4177 -0.5178
 3518DECAN   C535165  10.593   3.069  11.925 -0.2222  0.5523 -0.1175
 3518DECAN   C635166  10.610   2.941  11.840 -0.2217 -0.2898  1.1153
 3518DECAN   C735167  10.486   2.850  11.826  0.0874 -0.5862  0.2183
 3518DECAN   C835168  10.517   2.705  11.785 -0.2195 -0.5523 -0.1375
 3518DECAN   C935169  10.598   2.701  11.654  0.0583 -0.0739  0.0129
 3518DECAN  C1035170  10.743   2.753  11.659 -0.1909  0.6307 -0.0050
 3519DECAN   C135171   7.232   7.803   9.491  0.0227  0.4830  0.0798
 3519DECAN   C235172   7.344   7.698   9.474  0.0653  0.5517 -0.0663
 3519DECAN   C335173   7.445   7.707   9.590  0.0070 -0.4817  0.0807
 3519DECAN   C435174   7.484   7.853   9.622  0.1701 -0.5904  0.3766
 3519DECAN   C535175   7.555   7.922   9.505 -0.6042 -0.7224 -0.1800
 3519DECAN   C635176   7.651   7.836   9.420  0.3013  0.0501  0.0439
 3519DECAN   C735177   7.790   7.879   9.369  0.4509  0.0800  0.4701
 3519DECAN   C835178   7.785   8.013   9.294  0.6076 -0.3080 -0.2453
 3519DECAN   C935179   7.929   8.056   9.259  0.5574 -0.1022 -0.2032
 3519DECAN  C1035180   7.945   8.207   9.234 -0.4098  0.1037  0.3933
 3520DECAN   C135181   1.556   6.896   9.939 -0.2368 -0.7852 -0.1551
 3520DECAN   C235182   1.611   6.878   9.797  0.0718 -0.4853 -0.0743
 3520DECAN   C335183   1.757   6.918   9.766 -0.1515  0.2105 -0.2538
 3520DECAN   C435184   1.801   6.899   9.620  0.0280  0.0019 -0.1740
 3520DECAN   C535185   1.938   6.967   9.605 -0.1220  0.4322  0.3650
 3520DECAN   C635186   2.001   6.965   9.465 -0.4307 -0.5959  0.2386
 3520DECAN   C735187   2.103   6.849   9.459 -0.5149 -0.6641  0.0921
 3520DECAN   C835188   2.112   6.794   9.316 -0.2548  0.3057 -0.2790
 3520DECAN   C935189   2.212   6.678   9.301 -1.0304 -0.3516 -0.4624
 3520DECAN  C1035190   2.251   6.636   9.158  0.5918  0.5670 -0.3167
 3521DECAN   C135191   9.125   9.560   5.351  0.1099 -1.0359  0.4258
 3521DECAN   C235192   9.230   9.510   5.249 -0.5389  0.5333 -1.0532
 3521DECAN   C335193   9.230   9.360   5.215  0.4484  0.3674 -0.3587
 3521DECAN   C435194   9.364   9.308   5.160 -0.0197 -0.6691 -0.5403
 3521DECAN   C535195   9.406   9.382   5.032  0.2643  0.1951  0.0467
 3521DECAN   C635196   9.553   9.355   4.993  0.2693 -0.0135  0.2114
 3521DECAN   C735197   9.590   9.391   4.848  0.5331  0.2469  0.3442
 3521DECAN   C835198   9.734   9.360   4.803  0.4741  0.1496  0.2191
 3521DECAN   C935199   9.771   9.221   4.858  0.1742 -0.2055 -0.4709
 3521DECAN  C1035200   9.657   9.117   4.852  0.3075 -0.4069  0.3848
 3522DECAN   C135201   4.805   4.125   6.164 -0.2159 -0.1892  0.2836
 3522DECAN   C235202   4.874   4.210   6.272  0.2781  0.4551 -0.5196
 3522DECAN   C335203   4.929   4.347   6.229  0.3149  0.7442  0.4093
 3522DECAN   C435204   5.048   4.394   6.314  0.8419 -0.5058  0.3808
 3522DECAN   C535205   5.017   4.376   6.464  0.2154 -0.3883  0.2695
 3522DECAN   C635206   4.870   4.414   6.485  0.2416 -0.0719 -0.1057
 3522DECAN   C735207   4.817   4.425   6.630 -0.0306  0.2072 -0.2231
 3522DECAN   C835208   4.671   4.468   6.653 -0.0531 -0.0799  0.1731
 3522DECAN   C935209   4.637   4.464   6.803 -0.1333  0.7082  0.1772
 3522DECAN  C1035210   4.726   4.562   6.881  0.2222 -0.0691  0.7606
 3523DECAN   C135211   9.551   8.701   8.286 -0.7806  0.3089 -0.6420
 3523DECAN   C235212   9.513   8.601   8.175  0.4225 -0.4694 -0.3678
 3523DECAN   C335213   9.409   8.647   8.071  0.5936  0.1037 -0.2866
 3523DECAN   C435214   9.379   8.542   7.963  0.0877  0.3830 -0.4222
 3523DECAN   C535215   9.502   8.528   7.871  0.2209 -0.0012 -0.1894
 3523DECAN   C635216   9.641   8.532   7.937 -0.0166 -0.1048  0.3226
 3523DECAN   C735217   9.757   8.499   7.841  0.1599  0.3348  0.3810
 3523DECAN   C835218   9.898   8.522   7.898  0.4071 -0.1650 -0.0212
 3523DECAN   C935219  10.004   8.506   7.787 -0.0032  0.0472 -0.4455
 3523DECAN  C1035220  10.142   8.561   7.829 -0.0579 -0.4993  0.4883
 3524DECAN   C135221   5.805   8.768  15.089 -0.3912  0.3015  0.1797
 3524DECAN   C235222   5.675   8.726  15.018  0.0803  0.1773 -0.6139
 3524DECAN   C335223   5.624   8.583  15.046  0.2870  0.1267 -0.4976
 3524DECAN   C435224   5.490   8.550  14.978 -0.1823  0.2005  0.3743
 3524DECAN   C535225   5.420   8.418  15.013 -0.2417  0.1960  0.2380
 3524DECAN   C635226   5.308   8.384  14.913  0.1422  0.0304 -0.1381
 3524DECAN   C735227   5.351   8.331  14.774 -0.1786  0.2220 -0.3112
 3524DECAN   C835228   5.228   8.289  14.691 -0.1536 -0.4407 -0.0216
 3524DECAN   C935229   5.264   8.262  14.543  0.1058  0.3357 -0.1023
 3524DECAN  C1035230   5.145   8.216  14.457  0.3624 -0.2105 -0.1630
 3525DECAN   C135231   1.330  10.787  10.717 -0.2082 -0.3583  0.2005
 3525DECAN   C235232   1.207  10.695  10.727 -0.0897 -0.4564  0.7503
 3525DECAN   C335233   1.213  10.557  10.658  0.0843 -0.1298  0.1136
 3525DECAN   C435234   1.094  10.463  10.682 -0.2892  0.2175 -0.3339
 3525DECAN   C535235   1.097  10.337  10.594  0.0240  0.0799 -0.1307
 3525DECAN   C635236   1.237  10.273  10.592 -0.0544 -0.0958  0.0100
 3525DECAN   C735237   1.344  10.342  10.678 -0.2763  0.1560  0.0857
 3525DECAN   C835238   1.474  10.259  10.680 -0.6430 -0.4185  0.1469
 3525DECAN   C935239   1.581  10.322  10.771 -0.5183 -0.0859 -0.2256
 3525DECAN  C1035240   1.616  10.469  10.745 -0.2679 -0.1436 -0.2258
 3526DECAN   C135241   3.407   9.080   7.062  0.1098  0.3906  0.3778
 3526DECAN   C235242   3.517   9.184   7.091 -0.0317  0.5601  0.3097
 3526DECAN   C335243   3.637   9.122   7.165 -0.0479  0.3278  0.1443
 3526DECAN   C435244   3.756   9.219   7.175  0.0904  0.1573  0.1508
 3526DECAN   C535245   3.877   9.178   7.261 -0.1632 -0.1029  0.3838
 3526DECAN   C635246   3.960   9.063   7.201 -0.4001  0.2843 -0.7087
 3526DECAN   C735247   3.887   8.932   7.164 -0.3719 -0.0563  0.3933
 3526DECAN   C835248   3.970   8.815   7.108 -0.5709 -0.0753  0.1336
 3526DECAN   C935249   3.879   8.693   7.084 -0.2048 -0.2660 -0.2978
 3526DECAN  C1035250   3.958   8.579   7.018  0.1375 -0.0434 -0.2769
 3527DECAN   C135251   4.470   2.250  10.906 -0.3062  0.2889  0.2340
 3527DECAN   C235252   4.436   2.393  10.858 -0.3200  0.0083 -0.6192
 3527DECAN   C335253   4.286   2.425  10.871 -0.2616 -0.0275  0.1728
 3527DECAN   C435254   4.270   2.569  10.819  0.4466  0.0235  0.0804
 3527DECAN   C535255   4.325   2.681  10.910  0.1748 -0.0270  0.3090
 3527DECAN   C635256   4.344   2.817  10.840  0.0922 -0.2970 -0.2499
 3527DECAN   C735257   4.390   2.942  10.916 -0.3525 -0.1431 -0.2315
 3527DECAN   C835258   4.287   2.987  11.022 -0.2870 -0.0280 -0.2171
 3527DECAN   C935259   4.272   3.140  11.028 -0.4124 -0.0407 -0.2194
 3527DECAN  C1035260   4.204   3.211  11.147  0.2722  0.5126 -0.1531
 3528DECAN   C135261   6.436   3.060   4.549 -0.5971  0.1709  0.2689
 3528DECAN   C235262   6.351   3.136   4.446  0.3894  0.8047 -0.0875
 3528DECAN   C335263   6.298   3.061   4.323 -0.5781  0.4654  0.5221
 3528DECAN   C435264   6.144   3.054   4.325 -0.5370 -0.8229 -0.0343
 3528DECAN   C535265   6.093   3.014   4.185  0.1693 -0.1681 -0.4847
 3528DECAN   C635266   6.132   2.872   4.143 -0.0398 -0.3944  0.0741
 3528DECAN   C735267   6.281   2.870   4.102 -0.1908  0.1402 -0.5113
 3528DECAN   C835268   6.340   2.728   4.107 -0.0607  0.2218  0.4061
 3528DECAN   C935269   6.268   2.623   4.020 -0.2671  0.4167  0.3407
 3528DECAN  C1035270   6.264   2.649   3.869  0.4414  0.2476  0.2916
 3529DECAN   C135271   3.302   5.295   8.870 -0.2686 -0.5783 -0.3901
 3529DECAN   C235272   3.350   5.432   8.818 -0.5059 -0.5426 -0.5150
 3529DECAN   C335273   3.237   5.511   8.750 -0.3767  0.1492  0.0576
 3529DECAN   C435274   3.172   5.433   8.634  0.3032 -0.0982 -0.1572
 3529DECAN   C535275   3.261   5.450   8.509  0.2631  0.3229 -0.1288
 3529DECAN   C635276   3.396   5.377   8.501 -0.0540 -0.2457 -0.3455
 3529DECAN   C735277   3.467   5.401   8.367  0.1296  0.6366 -0.1004
 3529DECAN   C835278   3.429   5.527   8.287 -0.6532  0.2810 -0.3017
 3529DECAN   C935279   3.517   5.535   8.160 -0.1943  0.0877 -0.0012
 3529DECAN  C1035280   3.479   5.648   8.063 -0.2279  0.0285 -0.0570
 3530DECAN   C135281   5.323   9.123   6.608  0.1664  0.1368  0.2894
 3530DECAN   C235282   5.358   9.271   6.628  0.3543  0.1789 -0.3281
 3530DECAN   C335283   5.353   9.321   6.773 -0.1801  0.0324 -0.2948
 3530DECAN   C435284   5.405   9.466   6.784  0.2262 -0.1475  0.2153
 3530DECAN   C535285   5.318   9.554   6.875 -0.0171 -0.3835  0.2129
 3530DECAN   C635286   5.400   9.681   6.903  0.5927 -0.8240  0.4481
 3530DECAN   C735287   5.444   9.766   6.782 -0.3336 -0.2563  0.4995
 3530DECAN   C835288   5.353   9.885   6.747  0.3000  0.2509  0.5593
 3530DECAN   C935289   5.406   9.984   6.642  0.5790 -0.3063  0.1699
 3530DECAN  C1035290   5.426   9.920   6.504  0.6012  0.5326 -0.2224
 3531DECAN   C135291   8.970   5.300  14.583  0.2724  1.0474 -0.2922
 3531DECAN   C235292   8.851   5.389  14.625 -0.2441 -0.0043  0.5178
 3531DECAN   C335293   8.852   5.522  14.546  1.1707  0.0392  0.5781
 3531DECAN   C435294   8.740   5.606  14.610  0.4746 -0.1462 -0.3864
 3531DECAN   C535295   8.714   5.743  14.545 -0.2679 -0.0908  0.0226
 3531DECAN   C635296   8.567   5.788  14.562 -0.2246  0.1370 -0.1958
 3531DECAN   C735297   8.552   5.937  14.528  0.0970  0.2032 -0.0508
 3531DECAN   C835298   8.414   5.982  14.581  0.0923 -0.3488  0.4163
 3531DECAN   C935299   8.388   6.129  14.546 -0.1281 -0.3532  0.5629
 3531DECAN  C1035300   8.243   6.177  14.566  0.0913  0.4929  0.1738
 3532DECAN   C135301   9.159   2.089   8.201 -0.4613  0.0029 -0.2068
 3532DECAN   C235302   9.160   2.242   8.217 -0.2266 -0.0780  0.6054
 3532DECAN   C335303   9.047   2.310   8.296 -0.0424  0.1990  0.6330
 3532DECAN   C435304   8.926   2.356   8.213  0.1355  0.0102  0.2662
 3532DECAN   C535305   8.810   2.407   8.300  0.1632  0.4372  0.0552
 3532DECAN   C635306   8.736   2.318   8.402  0.2377  0.3741  0.0529
 3532DECAN   C735307   8.711   2.177   8.346 -0.0276  0.3378  0.2639
 3532DECAN   C835308   8.666   2.058   8.433 -0.3102  0.1635 -0.1188
 3532DECAN   C935309   8.597   1.941   8.361 -0.2691  0.3118 -0.3984
 3532DECAN  C1035310   8.686   1.816   8.364 -1.2589 -0.4019  0.1847
 3533DECAN   C135311   8.489   1.015  13.741 -0.3638 -0.2498  0.8092
 3533DECAN   C235312   8.591   1.125  13.775 -0.0284 -0.3910  0.2745
 3533DECAN   C335313   8.724   1.090  13.706  0.0996  0.5042  0.0525
 3533DECAN   C435314   8.699   1.062  13.557 -0.3580  0.4621  0.1363
 3533DECAN   C535315   8.620   0.931  13.538  0.6125 -0.1410  0.2009
 3533DECAN   C635316   8.661   0.847  13.416  0.2761 -0.2347  0.1536
 3533DECAN   C735317   8.786   0.758  13.422  0.4974  0.0673  0.0487
 3533DECAN   C835318   8.824   0.690  13.289  0.3035  0.3053 -0.1294
 3533DECAN   C935319   8.940   0.588  13.283  0.0255 -0.0169 -0.0355
 3533DECAN  C1035320   8.918   0.447  13.342 -0.2743  0.1408  0.2413
 3534DECAN   C135321   3.782   0.027   7.216 -0.3580 -0.0181 -0.4357
 3534DECAN   C235322   3.890  11.243   7.109  0.0826 -0.0442  0.0136
 3534DECAN   C335323   3.855   0.047   6.967  0.2991  0.1587  0.0299
 3534DECAN   C435324   3.890   0.192   6.929 -0.2180  0.1912 -0.3244
 3534DECAN   C535325   3.863   0.227   6.781 -0.5027  0.4244 -0.2192
 3534DECAN   C635326   3.912   0.365   6.736 -0.0698  0.4397  0.2862
 3534DECAN   C735327   4.062   0.363   6.700 -0.1935  0.1307 -0.2278
 3534DECAN   C835328   4.171   0.332   6.804 -0.1875 -0.1784 -0.3255
 3534DECAN   C935329   4.312   0.315   6.745  0.2683  0.7717  0.4695
 3534DECAN  C1035330   4.391   0.441   6.705  0.3911  0.6484  0.3217
 3535DECAN   C135331   2.382   0.752   9.758  0.2317 -0.3162 -0.1430
 3535DECAN   C235332   2.502   0.772   9.854  0.3044 -0.5259 -0.1888
 3535DECAN   C335333   2.478   0.851   9.984  0.5992 -1.0883  0.2078
 3535DECAN   C435334   2.606   0.885  10.063  0.5280 -0.8326  0.2148
 3535DECAN   C535335   2.608   1.026  10.125  0.0034 -0.5727 -0.3491
 3535DECAN   C635336   2.725   1.056  10.220 -0.3518  0.2833 -0.1773
 3535DECAN   C735337   2.712   1.203  10.264 -0.4041  0.0642  0.5464
 3535DECAN   C835338   2.833   1.241  10.353  0.1124 -0.1974 -0.0361
 3535DECAN   C935339   2.825   1.391  10.385  0.3176 -0.0906 -0.4849
 3535DECAN  C1035340   2.941   1.429  10.478 -0.2483  0.2118  0.1063
 3536DECAN   C135341   0.917  10.194  10.207  0.3439 -0.1901 -1.0380
 3536DECAN   C235342   1.011  10.315  10.191 -0.3303  0.4837 -0.0262
 3536DECAN   C335343   0.950  10.428  10.106 -0.0831  0.1970 -0.5868
 3536DECAN   C435344   1.032  10.558  10.096  0.4486 -0.0740  0.1581
 3536DECAN   C535345   0.981  10.663   9.995  0.6314 -0.0683  0.0723
 3536DECAN   C635346   1.036  10.802  10.032  0.0608  0.0553  0.4499
 3536DECAN   C735347   1.035  10.906   9.919  0.5704 -0.0362  0.3593
 3536DECAN   C835348   1.032  11.054   9.962 -0.1371 -0.0787  0.4705
 3536DECAN   C935349   1.170  11.122   9.971 -0.0141 -0.1953 -0.4258
 3536DECAN  C1035350   1.283  11.046  10.043 -0.8358 -1.1585 -0.1312
 3537DECAN   C135351   2.058   4.787   5.227  0.0101 -0.2662 -0.6759
 3537DECAN   C235352   1.936   4.874   5.263  0.0878 -0.3276 -0.2696
 3537DECAN   C335353   1.941   4.928   5.408 -0.7644  0.2788 -0.4580
 3537DECAN   C435354   2.074   4.987   5.456 -0.7695  0.2918 -0.4596
 3537DECAN   C535355   2.080   5.019   5.606 -0.3122 -0.1185 -0.3875
 3537DECAN   C635356   2.226   5.034   5.653 -0.3539 -0.1016 -0.2622
 3537DECAN   C735357   2.330   4.962   5.566 -0.0905  0.0321 -0.0590
 3537DECAN   C835358   2.473   4.981   5.621  0.2489 -0.2412 -0.8232
 3537DECAN   C935359   2.571   4.876   5.567  0.4222 -0.2329 -0.5277
 3537DECAN  C1035360   2.701   4.927   5.630  0.0846  0.3538 -0.3036
 3538DECAN   C135361   9.453   0.253   9.251  0.0416  0.5841 -0.1661
 3538DECAN   C235362   9.493   0.115   9.307  0.5504  0.5194 -0.6785
 3538DECAN   C335363   9.645   0.101   9.328  0.3631  0.1888  0.4968
 3538DECAN   C435364   9.717   0.070   9.196 -0.0296  1.0543  0.0704
 3538DECAN   C535365   9.869   0.062   9.215 -0.0437  0.3257 -0.0851
 3538DECAN   C635366   9.914  11.217   9.333  0.1256 -0.1574 -0.5086
 3538DECAN   C735367   9.853   0.014   9.468  0.5618 -0.5507 -0.1921
 3538DECAN   C835368   9.909  11.167   9.579  0.1970 -0.1833  0.2996
 3538DECAN   C935369   9.894  11.016   9.553  0.0597 -0.0360 -0.4979
 3538DECAN  C1035370   9.928  10.933   9.678 -1.2593  0.2437  0.0648
 3539DECAN   C135371   1.920   4.356   8.627  0.2275 -0.1471 -0.3115
 3539DECAN   C235372   1.982   4.384   8.489  0.8194 -0.1320 -0.0458
 3539DECAN   C335373   1.879   4.412   8.378  0.8726 -0.4849 -0.1844
 3539DECAN   C435374   1.941   4.407   8.237  0.1884  0.4171 -0.5234
 3539DECAN   C535375   1.840   4.418   8.121 -0.0647 -0.3027 -0.3766
 3539DECAN   C635376   1.887   4.387   7.977 -0.6066 -0.4996 -0.5126
 3539DECAN   C735377   1.773   4.331   7.890 -0.8344 -0.3716 -0.2996
 3539DECAN   C835378   1.816   4.279   7.752  0.0814  0.1725 -0.2231
 3539DECAN   C935379   1.938   4.184   7.756  0.2624  0.4051 -0.1785
 3539DECAN  C1035380   1.996   4.174   7.614 -0.5312  0.0403 -0.4847
 3540DECAN   C135381   2.595   2.560   9.237 -0.1919  0.5093 -0.1986
 3540DECAN   C235382   2.706   2.604   9.334  0.1270 -0.5885 -0.0462
 3540DECAN   C335383   2.841   2.646   9.271 -0.5231  0.3020 -0.8845
 3540DECAN   C435384   2.906   2.531   9.192 -0.1204 -0.2512  0.2253
 3540DECAN   C535385   3.003   2.577   9.081  0.0663 -0.0477  0.4740
 3540DECAN   C635386   3.064   2.460   9.003 -0.0633  0.1741  0.0394
 3540DECAN   C735387   3.170   2.507   8.901 -0.5630  0.5976 -0.2891
 3540DECAN   C835388   3.245   2.401   8.819 -0.7841  0.2770 -0.0794
 3540DECAN   C935389   3.320   2.286   8.889 -0.5368  0.6771  0.3225
 3540DECAN  C1035390   3.223   2.195   8.967 -0.4023 -0.2826 -0.6089
 3541DECAN   C135391   9.667   4.025  12.560 -0.5432 -0.2838 -0.2234
 3541DECAN   C235392   9.548   4.103  12.502 -0.3035  0.0801 -0.2234
 3541DECAN   C335393   9.586   4.209  12.397  0.1902  0.1105 -0.0185
 3541DECAN   C435394   9.475   4.306  12.351  0.1455 -0.0706 -0.2922
 3541DECAN   C535395   9.507   4.373  12.217  0.0804 -0.1313 -0.3390
 3541DECAN   C635396   9.427   4.504  12.216 -0.5040 -0.4833  0.2226
 3541DECAN   C735397   9.415   4.575  12.080  0.4018 -0.1325  0.3236
 3541DECAN   C835398   9.346   4.712  12.075  0.4189 -0.1164  0.5042
 3541DECAN   C935399   9.286   4.741  11.936  0.4295  0.8085  0.6824
 3541DECAN  C1035400   9.198   4.867  11.926 -0.0344  0.4214 -0.3264
 3542DECAN   C135401   7.403   3.285   9.232 -0.5374 -0.2556 -0.3793
 3542DECAN   C235402   7.327   3.161   9.181 -0.3793 -0.3811 -0.3131
 3542DECAN   C335403   7.275   3.191   9.039  0.1971 -0.2031 -0.4888
 3542DECAN   C435404   7.390   3.218   8.941  0.4338  0.0529 -0.1442
 3542DECAN   C535405   7.353   3.241   8.793  0.2744 -0.1826 -0.1399
 3542DECAN   C635406   7.468   3.273   8.696  0.0822  0.0883 -0.2812
 3542DECAN   C735407   7.579   3.170   8.670  0.3076  0.2856 -0.1086
 3542DECAN   C835408   7.541   3.031   8.616  0.0589  0.3841 -0.1905
 3542DECAN   C935409   7.491   3.041   8.471  0.2381 -0.0740 -0.2873
 3542DECAN  C1035410   7.454   2.901   8.418  0.4616 -0.2516  0.0286
 3543DECAN   C135411   8.650   1.377  14.577 -0.2506  0.1482 -0.4011
 3543DECAN   C235412   8.612   1.416  14.721  0.0709  0.1320 -0.3097
 3543DECAN   C335413   8.547   1.302  14.802  0.0248 -0.0700 -0.6329
 3543DECAN   C435414   8.464   1.342  14.925  0.4365 -0.1739 -0.3191
 3543DECAN   C535415   8.414   1.225  15.012 -0.5796 -0.0635 -0.7489
 3543DECAN   C635416   8.334   1.120  14.933  0.0313 -0.8429 -0.3414
 3543DECAN   C735417   8.198   1.177  14.888  0.4283  0.4243  0.0148
 3543DECAN   C835418   8.097   1.073  14.835  0.4858  0.4213 -0.0894
 3543DECAN   C935419   7.969   1.143  14.786 -0.1034 -0.4325  0.1915
 3543DECAN  C1035420   7.888   1.056  14.689  0.1115 -0.5614  0.1262
 3544DECAN   C135421   4.725   5.973  15.084 -0.1813  0.2780 -0.2811
 3544DECAN   C235422   4.877   5.947  15.077 -0.2054 -0.1993  0.6676
 3544DECAN   C335423   4.944   5.980  14.942  0.2235 -0.1823  0.8822
 3544DECAN   C435424   5.093   5.942  14.943  0.3043  0.1059  0.3735
 3544DECAN   C535425   5.155   6.022  14.827  0.0915  0.1076  0.2617
 3544DECAN   C635426   5.309   6.021  14.818  0.0557  0.0001 -0.4221
 3544DECAN   C735427   5.367   6.148  14.884 -0.1791  0.1163 -0.4366
 3544DECAN   C835428   5.520   6.149  14.898 -0.2127  0.2931 -0.0859
 3544DECAN   C935429   5.586   6.287  14.917 -0.2460  0.3186 -0.1555
 3544DECAN  C1035430   5.545   6.336  15.057  0.1546 -0.2810  0.1779
 3545DECAN   C135431   8.290   2.873   7.249 -0.7223  0.0246  0.0222
 3545DECAN   C235432   8.270   2.963   7.125  0.0355 -0.2918 -0.3366
 3545DECAN   C335433   8.290   2.890   6.991 -0.2958 -0.1910 -0.4427
 3545DECAN   C435434   8.324   2.974   6.867  0.3539 -0.5073 -0.4851
 3545DECAN   C535435   8.328   2.873   6.751  0.0311 -0.3800 -0.6077
 3545DECAN   C635436   8.451   2.781   6.756  0.2000 -0.1274  0.0243
 3545DECAN   C735437   8.445   2.662   6.658 -0.2766  0.3205 -0.4960
 3545DECAN   C835438   8.503   2.534   6.720 -0.3658  0.1461 -0.7691
 3545DECAN   C935439   8.491   2.404   6.639 -0.4022  0.0915 -0.6760
 3545DECAN  C1035440   8.501   2.420   6.486  0.1244 -0.1052 -0.6644
 3546DECAN   C135441   3.492   1.966  13.573  0.4029  0.8727  0.1857
 3546DECAN   C235442   3.538   1.888  13.697  0.0952  0.3432 -0.0325
 3546DECAN   C335443   3.441   1.909  13.815  0.1704  0.1296  0.0681
 3546DECAN   C435444   3.452   1.800  13.922  0.8536  0.0529 -0.0759
 3546DECAN   C535445   3.473   1.658  13.866  0.1300 -0.1355  0.1267
 3546DECAN   C635446   3.498   1.562  13.984 -0.3586  0.4160  0.6870
 3546DECAN   C735447   3.474   1.412  13.958 -0.3001  0.5834 -0.3472
 3546DECAN   C835448   3.333   1.355  13.981 -0.1097  0.3217  0.1792
 3546DECAN   C935449   3.318   1.205  13.949  0.0125  0.3801 -0.1605
 3546DECAN  C1035450   3.180   1.143  13.980 -0.0156  0.4972 -0.0463
 3547DECAN   C135451  10.656   5.773  10.528 -0.3434  0.5775  0.2591
 3547DECAN   C235452  10.622   5.626  10.558 -0.3120  0.5679  0.2474
 3547DECAN   C335453  10.478   5.602  10.606 -0.0859 -0.3026  0.5119
 3547DECAN   C435454  10.473   5.463  10.671  0.1241 -0.6695 -0.2523
 3547DECAN   C535455  10.338   5.412  10.726 -0.2807  0.6013 -0.0495
 3547DECAN   C635456  10.342   5.283  10.809  1.0863  0.4311 -0.3620
 3547DECAN   C735457  10.417   5.164  10.745 -0.3236 -0.5678 -0.2056
 3547DECAN   C835458  10.430   5.036  10.829 -0.1041 -0.4620 -0.0777
 3547DECAN   C935459  10.460   4.900  10.763  0.4755 -0.2067 -0.3476
 3547DECAN  C1035460  10.453   4.780  10.859  0.4307 -0.1484 -0.2778
 3548DECAN   C135461   1.564   1.894  12.437 -0.2078  0.4038 -0.0792
 3548DECAN   C235462   1.440   1.913  12.526 -0.2159 -0.2304  0.0506
 3548DECAN   C335463   1.375   1.777  12.556 -0.1835 -0.4049 -0.6451
 3548DECAN   C435464   1.436   1.696  12.673 -0.4450 -0.3015 -0.4372
 3548DECAN   C535465   1.349   1.574  12.707  0.1627 -0.4883  0.4884
 3548DECAN   C635466   1.355   1.474  12.590  0.0248 -0.3955  0.4007
 3548DECAN   C735467   1.320   1.326  12.618 -0.0131 -0.4735 -0.0496
 3548DECAN   C835468   1.315   1.249  12.485 -0.4485 -0.2292 -0.1780
 3548DECAN   C935469   1.359   1.102  12.503  0.5493  0.0663 -0.1452
 3548DECAN  C1035470   1.358   1.025  12.370  0.2907  0.6276 -0.4728
 3549DECAN   C135471   1.437   0.083  12.899  0.0448  0.6028 -0.5265
 3549DECAN   C235472   1.293   0.067  12.950  0.1193 -0.1955 -0.5577
 3549DECAN   C335473   1.188   0.104  12.844 -0.2841  0.2336 -0.0117
 3549DECAN   C435474   1.196   0.249  12.792  0.1541  0.1195 -0.2596
 3549DECAN   C535475   1.082   0.291  12.699 -0.1483 -0.0053  0.0516
 3549DECAN   C635476   1.086   0.443  12.670 -0.0329  0.0215  0.2087
 3549DECAN   C735477   1.222   0.491  12.618 -0.0149 -0.7197 -0.4558
 3549DECAN   C835478   1.336   0.442  12.709 -0.3711 -0.2894  0.2349
 3549DECAN   C935479   1.470   0.515  12.688 -0.4708 -0.0389  0.4650
 3549DECAN  C1035480   1.558   0.518  12.814 -0.0709  0.0405  0.1879
 3550DECAN   C135481   7.320   5.919   9.272 -0.2645 -0.2058  0.3650
 3550DECAN   C235482   7.258   5.949   9.410 -0.3862  0.1670  0.2319
 3550DECAN   C335483   7.186   6.084   9.424 -0.1131  0.3257  0.1008
 3550DECAN   C435484   7.117   6.098   9.561  0.4839 -0.1653  0.4547
 3550DECAN   C535485   7.079   6.247   9.570  0.4683 -0.1268 -0.1768
 3550DECAN   C635486   7.190   6.320   9.493  0.2110  0.0412 -0.3891
 3550DECAN   C735487   7.186   6.474   9.502  0.3586  0.0237  0.0145
 3550DECAN   C835488   7.159   6.528   9.643  0.2863  0.2109 -0.0715
 3550DECAN   C935489   7.193   6.678   9.654 -0.2563  0.3338 -0.0543
 3550DECAN  C1035490   7.344   6.691   9.625 -0.0338 -0.1168  0.8761
 3551DECAN   C135491   2.045   8.891   7.374  0.4460 -0.0196  0.3919
 3551DECAN   C235492   2.030   8.738   7.376 -0.6599  0.0766 -0.0739
 3551DECAN   C335493   2.044   8.689   7.521 -0.6438 -0.4672 -0.2601
 3551DECAN   C435494   2.083   8.540   7.521  0.9963 -0.0606 -0.0013
 3551DECAN   C535495   2.151   8.492   7.651  0.1632  0.0593  0.4857
 3551DECAN   C635496   2.058   8.461   7.769 -0.2137  0.4850  0.3048
 3551DECAN   C735497   2.131   8.422   7.899  0.1058 -0.4856 -0.1612
 3551DECAN   C835498   2.037   8.364   8.006  0.4748  0.1204  0.4924
 3551DECAN   C935499   1.954   8.475   8.073 -0.0303 -0.0470  0.1460
 3551DECAN  C1035500   1.865   8.419   8.186 -0.0492 -0.0682  0.1201
 3552DECAN   C135501   6.824   8.629   5.089 -0.5328  0.6047  0.1585
 3552DECAN   C235502   6.918   8.732   5.024 -0.2511  0.3599  0.1741
 3552DECAN   C335503   6.898   8.878   5.068  0.6509  0.4455  0.3249
 3552DECAN   C435504   6.984   8.971   4.980  0.6656  0.3764  0.2668
 3552DECAN   C535505   6.976   9.120   5.016 -0.7154  0.3794  0.0097
 3552DECAN   C635506   7.031   9.223   4.915  0.0935  0.1880  0.2514
 3552DECAN   C735507   7.031   9.369   4.962 -0.3332  0.0978  0.5397
 3552DECAN   C835508   6.890   9.421   4.996 -0.6089 -0.2181 -0.1222
 3552DECAN   C935509   6.905   9.570   5.032 -0.0836 -0.2031 -0.3866
 3552DECAN  C1035510   6.778   9.654   5.056 -0.1487 -0.0112 -1.3499
 3553DECAN   C135511   3.597   1.704   6.543  0.0571 -0.2630 -0.2439
 3553DECAN   C235512   3.548   1.648   6.678 -0.2156 -0.4974 -0.4408
 3553DECAN   C335513   3.669   1.572   6.736 -0.0846  0.3497  0.4100
 3553DECAN   C435514   3.647   1.502   6.872 -0.1694 -0.1532  0.1404
 3553DECAN   C535515   3.775   1.479   6.954  0.1739 -0.3758 -0.4514
 3553DECAN   C635516   3.738   1.418   7.090  0.2348  0.2532 -0.1471
 3553DECAN   C735517   3.856   1.368   7.176  0.3285  0.9714  0.1532
 3553DECAN   C835518   3.817   1.330   7.320  0.0458 -0.4890 -0.2884
 3553DECAN   C935519   3.930   1.243   7.378 -0.0842 -0.9010 -0.6464
 3553DECAN  C1035520   3.926   1.215   7.530  0.5488  0.6164 -0.3314
 3554DECAN   C135521   3.599   5.019  13.307  0.0683  0.0887  0.6869
 3554DECAN   C235522   3.536   4.883  13.274 -0.3927  0.4922 -0.1178
 3554DECAN   C335523   3.588   4.831  13.138 -0.1047 -0.3664  0.3174
 3554DECAN   C435524   3.527   4.708  13.068 -0.1423  0.1310 -0.5289
 3554DECAN   C535525   3.556   4.573  13.135 -0.0774  0.3449 -0.1235
 3554DECAN   C635526   3.496   4.442  13.082  0.4778 -0.0586  0.2224
 3554DECAN   C735527   3.529   4.316  13.164  1.0007  0.3706  0.6762
 3554DECAN   C835528   3.480   4.310  13.309 -0.7900  0.0900  0.0846
 3554DECAN   C935529   3.531   4.188  13.388 -0.2741 -0.2072 -0.7035
 3554DECAN  C1035530   3.626   4.233  13.500 -0.3588 -0.7760 -0.3987
 3555DECAN   C135531   4.561   8.577  12.444 -0.2654  0.3603  0.1477
 3555DECAN   C235532   4.663   8.598  12.331  0.0321  0.6461  0.4689
 3555DECAN   C335533   4.656   8.720  12.237  0.5449  0.1956 -0.1650
 3555DECAN   C435534   4.769   8.727  12.133  0.4021 -0.5739 -0.3775
 3555DECAN   C535535   4.762   8.847  12.037  0.4467 -0.1558  0.1358
 3555DECAN   C635536   4.890   8.868  11.954  0.3308  0.3130  0.0703
 3555DECAN   C735537   4.882   8.982  11.851  0.0294  0.6032  0.4141
 3555DECAN   C835538   4.987   8.985  11.738 -0.5176  0.0520 -0.1128
 3555DECAN   C935539   4.971   9.098  11.634 -0.1263 -0.0032 -0.2309
 3555DECAN  C1035540   5.063   9.094  11.510 -0.2002  0.2299 -0.2934
 3556DECAN   C135541   3.696   7.175   5.789 -0.5734  0.4031  0.0868
 3556DECAN   C235542   3.815   7.268   5.821  0.1472 -0.3894 -0.2549
 3556DECAN   C335543   3.778   7.414   5.849  0.5851 -0.4611  0.7121
 3556DECAN   C435544   3.907   7.494   5.876  0.6154 -0.3113  0.1415
 3556DECAN   C535545   3.881   7.632   5.940  0.1903 -0.2756 -0.1067
 3556DECAN   C635546   3.956   7.657   6.072  0.0329 -1.0302  0.1374
 3556DECAN   C735547   3.954   7.554   6.186  0.6256 -0.4007  0.7288
 3556DECAN   C835548   3.985   7.410   6.140 -0.3550 -0.3430 -0.1461
 3556DECAN   C935549   3.978   7.301   6.249 -0.4317  0.2292  0.4255
 3556DECAN  C1035550   4.048   7.169   6.214 -0.5785 -0.0298  1.0908
 3557DECAN   C135551   1.668   1.325  12.247  0.2559 -0.1719  0.0212
 3557DECAN   C235552   1.666   1.468  12.189 -0.3782 -0.2861 -0.2457
 3557DECAN   C335553   1.536   1.549  12.195  0.0138  0.3333 -0.0479
 3557DECAN   C435554   1.404   1.478  12.158 -0.0880  0.3959  0.1877
 3557DECAN   C535555   1.391   1.425  12.014  0.1672  0.0388  0.2935
 3557DECAN   C635556   1.267   1.341  11.980 -0.2284  0.8125 -0.2213
 3557DECAN   C735557   1.271   1.299  11.832  0.4291 -0.5093  0.1594
 3557DECAN   C835558   1.173   1.189  11.788  0.3371 -0.3950  0.0798
 3557DECAN   C935559   1.025   1.224  11.815  0.4079 -0.2764  0.3173
 3557DECAN  C1035560   0.934   1.100  11.811  0.0709 -0.0343  0.5376
 3558DECAN   C135561   4.044   0.181   8.963  0.4662 -0.1279  0.8909
 3558DECAN   C235562   3.900   0.212   9.006  0.2137 -0.1368  0.0616
 3558DECAN   C335563   3.855   0.360   9.009 -0.5939 -0.3824  0.4459
 3558DECAN   C435564   3.962   0.445   9.080 -0.2175 -0.3950 -0.1017
 3558DECAN   C535565   3.919   0.591   9.104 -0.2234 -0.4906  0.4867
 3558DECAN   C635566   4.008   0.695   9.174 -0.3035  0.0508 -0.2071
 3558DECAN   C735567   3.929   0.826   9.196  0.0309  0.2987 -0.4789
 3558DECAN   C835568   4.009   0.919   9.289 -0.5664  0.2147  0.1197
 3558DECAN   C935569   4.036   0.855   9.426 -0.3821 -0.5228 -0.2519
 3558DECAN  C1035570   4.081   0.953   9.537  0.0762 -0.4680 -0.4843
 3559DECAN   C135571   2.941   6.624  13.360  0.2045  0.2434  0.0303
 3559DECAN   C235572   3.022   6.721  13.449  0.2943 -0.0089  0.2244
 3559DECAN   C335573   3.008   6.868  13.403  0.3834  0.0202  0.2888
 3559DECAN   C435574   3.061   6.964  13.510  0.0675  0.2918  0.2039
 3559DECAN   C535575   3.050   7.109  13.459  0.0427  0.1737 -0.1231
 3559DECAN   C635576   3.141   7.136  13.337 -0.6576  0.1539 -0.6553
 3559DECAN   C735577   3.138   7.272  13.265  0.4056  0.4484 -0.1567
 3559DECAN   C835578   3.209   7.263  13.128  0.8751 -0.5755  0.1433
 3559DECAN   C935579   3.174   7.380  13.034 -0.1578 -0.4573  0.6684
 3559DECAN  C1035580   3.210   7.519  13.089  0.3365 -0.4720  0.3797
 3560DECAN   C135581   6.697   3.525   7.711  0.0538  0.3537 -0.2887
 3560DECAN   C235582   6.776   3.608   7.814  0.1430 -0.4002  0.2617
 3560DECAN   C335583   6.921   3.641   7.777  0.0017 -0.0746 -0.0075
 3560DECAN   C435584   6.973   3.739   7.885 -0.4364  0.4729 -0.2886
 3560DECAN   C535585   6.880   3.861   7.899 -0.2066  0.5813  0.3034
 3560DECAN   C635586   6.897   3.966   7.788 -1.0366  0.2296 -0.1603
 3560DECAN   C735587   6.813   4.090   7.824 -0.2296  0.4828  0.8957
 3560DECAN   C835588   6.825   4.191   7.708 -0.1496 -0.0765  0.4095
 3560DECAN   C935589   6.729   4.311   7.720 -0.4837 -0.2698 -0.2948
 3560DECAN  C1035590   6.737   4.405   7.842  0.0348 -0.1315 -0.4301
 3561DECAN   C135591   7.380   3.124   9.873  0.2235  0.2429 -0.2580
 3561DECAN   C235592   7.368   2.995   9.789  0.0834 -0.0873  0.2626
 3561DECAN   C335593   7.491   2.903   9.782  0.4590  0.4022  0.3524
 3561DECAN   C435594   7.467   2.780   9.693  0.4041  0.4175  0.3461
 3561DECAN   C535595   7.595   2.699   9.665 -0.2409 -0.4501 -0.1352
 3561DECAN   C635596   7.674   2.658   9.790 -0.4193  0.2282  0.1998
 3561DECAN   C735597   7.799   2.573   9.758 -0.3364  0.3167  0.2837
 3561DECAN   C835598   7.868   2.499   9.873  0.0390 -0.3268 -0.3488
 3561DECAN   C935599   7.785   2.400   9.958 -0.0413  0.5723  0.6502
 3561DECAN  C1035600   7.853   2.361  10.090  0.7157 -0.1958  0.0474
 3562DECAN   C135601   8.682   6.557  13.853  0.3336  0.0222 -0.1424
 3562DECAN   C235602   8.639   6.410  13.863  0.2168  0.0681  0.0535
 3562DECAN   C335603   8.607   6.358  14.004 -0.1579  0.0841 -0.0248
 3562DECAN   C435604   8.564   6.210  14.005  0.2902 -0.0476  0.0784
 3562DECAN   C535605   8.544   6.150  14.145  0.5258  0.0522  0.1567
 3562DECAN   C635606   8.519   5.998  14.144  0.4535  0.0646 -0.6560
 3562DECAN   C735607   8.388   5.952  14.079 -0.3810  0.2559  0.8410
 3562DECAN   C835608   8.355   5.803  14.103 -0.0739  0.1021  0.3272
 3562DECAN   C935609   8.467   5.710  14.053 -0.0069  0.5292 -0.3303
 3562DECAN  C1035610   8.515   5.717  13.906  0.2472  0.2335 -0.2626
 3563DECAN   C135611   3.679   5.413  14.034 -0.1267  0.5005 -0.1897
 3563DECAN   C235612   3.796   5.313  14.041 -0.3497  0.2651  0.2031
 3563DECAN   C335613   3.775   5.182  13.963  0.2947  0.6334 -0.6043
 3563DECAN   C435614   3.886   5.080  13.994 -0.2472  0.3406  0.3931
 3563DECAN   C535615   3.878   4.944  13.921  1.0638  0.4691 -0.0045
 3563DECAN   C635616   3.987   4.854  13.981  0.4060 -0.3669 -0.0483
 3563DECAN   C735617   3.999   4.863  14.134 -0.4676 -0.5341  0.0345
 3563DECAN   C835618   4.082   4.749  14.197  0.3961 -0.0530 -0.2244
 3563DECAN   C935619   4.026   4.614  14.150  0.2640 -0.0092 -0.1944
 3563DECAN  C1035620   4.096   4.494  14.218  0.3979  0.2214  0.0753
 3564DECAN   C135621   4.101   9.588   5.657  0.6540  0.4160  0.0781
 3564DECAN   C235622   4.157   9.616   5.517  0.4571  0.0684 -0.0722
 3564DECAN   C335623   4.269   9.517   5.482 -0.1096 -0.5685 -0.0914
 3564DECAN   C435624   4.237   9.378   5.422 -0.2022 -0.6353  0.1131
 3564DECAN   C535625   4.368   9.298   5.411 -0.1141 -0.4938  0.1330
 3564DECAN   C635626   4.471   9.316   5.297  0.2041 -0.4153  0.4289
 3564DECAN   C735627   4.402   9.260   5.171  0.2402  0.4050  0.0378
 3564DECAN   C835628   4.475   9.268   5.036 -0.0788  0.0056 -0.1591
 3564DECAN   C935629   4.395   9.201   4.922  0.0163 -0.0746 -0.1789
 3564DECAN  C1035630   4.411   9.049   4.908 -0.4514 -0.1328 -0.1147
 3565DECAN   C135631  10.873  10.883  12.040  0.2586 -0.0902 -0.5469
 3565DECAN   C235632  10.961  10.781  11.965 -0.0583 -0.0994 -0.9135
 3565DECAN   C335633  10.883  10.697  11.862 -0.1390 -1.0829 -0.0681
 3565DECAN   C435634  10.822  10.774  11.744  0.0329 -0.3342  0.3217
 3565DECAN   C535635  10.738  10.692  11.644  0.1276 -0.1892  0.1206
 3565DECAN   C635636  10.713  10.755  11.506 -0.1121 -0.0683  0.2196
 3565DECAN   C735637  10.630  10.673  11.406 -0.2245 -0.0079  0.2624
 3565DECAN   C835638  10.619  10.721  11.260  0.4079 -0.0877  0.1842
 3565DECAN   C935639  10.475  10.733  11.204  0.4655 -0.1353  0.0239
 3565DECAN  C1035640  10.494  10.726  11.052  0.7001  0.0093  0.0458
 3566DECAN   C135641   6.383   7.248  12.225  0.0002 -0.3776  0.2498
 3566DECAN   C235642   6.269   7.232  12.327 -0.0526 -0.1461  0.2271
 3566DECAN   C335643   6.164   7.344  12.321 -0.1180 -0.2097  0.1830
 3566DECAN   C435644   6.208   7.483  12.372 -0.8817 -0.0384  0.3794
 3566DECAN   C535645   6.110   7.599  12.348 -0.3141  0.4167  0.2477
 3566DECAN   C635646   6.160   7.736  12.396  0.1657  0.4231 -0.2627
 3566DECAN   C735647   6.082   7.856  12.340  0.5068  0.4046 -0.7832
 3566DECAN   C835648   6.127   7.983  12.415 -0.2100 -0.0630  0.4656
 3566DECAN   C935649   6.046   8.111  12.383 -0.2821 -0.2937 -0.2869
 3566DECAN  C1035650   6.082   8.227  12.476  0.0436 -0.6325  0.0168
 3567DECAN   C135651   3.332   9.540   7.568  0.5508 -0.0001 -0.2430
 3567DECAN   C235652   3.317   9.418   7.660 -0.5092 -0.1933 -0.6481
 3567DECAN   C335653   3.330   9.281   7.591  0.0884 -0.3237 -0.2938
 3567DECAN   C435654   3.208   9.266   7.498 -0.6716  0.4592  0.5530
 3567DECAN   C535655   3.186   9.375   7.391  0.2194  0.4546  0.3587
 3567DECAN   C635656   3.062   9.339   7.308  0.2756  0.7983  0.1230
 3567DECAN   C735657   3.009   9.444   7.208 -0.0183  0.1455 -0.4129
 3567DECAN   C835658   2.916   9.380   7.103  0.1211 -0.5039 -0.1475
 3567DECAN   C935659   2.844   9.483   7.014  0.1372 -0.0775  0.3238
 3567DECAN  C1035660   2.726   9.412   6.945  0.2905 -0.8944  0.8849
 3568DECAN   C135661   7.022   3.505  13.436 -0.0422  0.2096 -0.0069
 3568DECAN   C235662   6.949   3.465  13.565 -0.5589  0.3677 -0.2466
 3568DECAN   C335663   6.946   3.591  13.654  0.1170  0.1987  0.0180
 3568DECAN   C435664   6.859   3.594  13.781  0.2912 -0.2572  0.1500
 3568DECAN   C535665   6.715   3.629  13.742  0.2778 -0.5131 -0.0303
 3568DECAN   C635666   6.612   3.582  13.847  0.2661  0.1293  0.2484
 3568DECAN   C735667   6.467   3.614  13.806  0.3402 -0.0157 -0.1262
 3568DECAN   C835668   6.366   3.593  13.920  0.5268 -0.1247  0.0196
 3568DECAN   C935669   6.338   3.445  13.954 -0.4651  0.1301  0.3495
 3568DECAN  C1035670   6.231   3.412  14.059 -0.1690 -0.0273  0.6034
 3569DECAN   C135671  10.279   2.000  11.962  0.0195 -0.0230  0.4997
 3569DECAN   C235672  10.409   1.918  11.962  0.0298 -0.0064 -0.0663
 3569DECAN   C335673  10.393   1.766  11.975 -0.2903  0.0089 -0.2702
 3569DECAN   C435674  10.523   1.688  12.003 -0.2630  0.0468 -0.2922
 3569DECAN   C535675  10.494   1.538  11.984  0.0935 -0.1029  0.3173
 3569DECAN   C635676  10.622   1.456  12.008 -0.2750 -0.8016 -0.0601
 3569DECAN   C735677  10.601   1.303  12.013 -0.0298 -0.8243  0.3585
 3569DECAN   C835678  10.727   1.231  12.063  0.2213 -0.4128  0.3192
 3569DECAN   C935679  10.705   1.080  12.081 -1.1643 -0.2890 -0.1932
 3569DECAN  C1035680  10.637   1.024  12.208 -0.1591  0.0880  0.5332
 3570DECAN   C135681   2.196  11.144  14.328  0.1429  0.4893 -0.0261
 3570DECAN   C235682   2.115  11.214  14.217 -0.3306 -0.3293 -0.2101
 3570DECAN   C335683   2.067   0.109  14.264 -0.1668 -0.0918 -0.7392
 3570DECAN   C435684   1.972   0.178  14.165 -0.4788  0.4608 -0.0622
 3570DECAN   C535685   1.897   0.288  14.241 -0.0353  0.0945  0.9175
 3570DECAN   C635686   1.849   0.376  14.125 -0.7224 -1.4209  0.0284
 3570DECAN   C735687   1.736   0.472  14.168  0.4218 -0.1464  0.2724
 3570DECAN   C835688   1.676   0.560  14.057 -0.3495 -0.4662  0.4256
 3570DECAN   C935689   1.779   0.626  13.963 -0.5646 -0.8203 -0.0681
 3570DECAN  C1035690   1.843   0.519  13.873  0.3656  0.0029 -0.3992
 3571DECAN   C135691  10.864   1.801  11.021  0.0443 -0.0496 -0.3489
 3571DECAN   C235692  10.745   1.704  11.035  0.0408 -0.0239 -0.1990
 3571DECAN   C335693  10.777   1.553  11.034  0.1429 -0.0024 -1.0328
 3571DECAN   C435694  10.649   1.469  11.047  0.0191  0.2875 -0.3140
 3571DECAN   C535695  10.570   1.478  10.915 -0.3185  0.4692 -0.1013
 3571DECAN   C635696  10.431   1.542  10.930 -0.0887  0.8410  0.4669
 3571DECAN   C735697  10.343   1.544  10.804  0.0258 -0.0336  0.3691
 3571DECAN   C835698  10.203   1.608  10.805 -0.2776 -0.6610 -0.4513
 3571DECAN   C935699  10.096   1.536  10.890 -0.4507 -0.2921 -0.3563
 3571DECAN  C1035700   9.964   1.612  10.912 -0.2281 -0.0021 -0.0110
 3572DECAN   C135701   6.789   3.850   4.255  0.2909 -0.1262 -0.2761
 3572DECAN   C235702   6.689   3.758   4.327  0.2638  0.6767  0.7409
 3572DECAN   C335703   6.542   3.793   4.297  0.1577 -0.0342  0.3807
 3572DECAN   C435704   6.455   3.667   4.285 -0.2412  0.2445  0.3101
 3572DECAN   C535705   6.452   3.612   4.141  0.4817  0.2226  0.3002
 3572DECAN   C635706   6.367   3.485   4.134  0.5873  0.1621  0.1169
 3572DECAN   C735707   6.376   3.408   4.000  0.1140  0.3032 -0.0001
 3572DECAN   C835708   6.312   3.269   4.017  0.6594  0.0574  0.0648
 3572DECAN   C935709   6.269   3.204   3.885  0.0085  0.3096  0.1502
 3572DECAN  C1035710   6.372   3.191   3.771 -0.3802  0.4815 -0.2244
 3573DECAN   C135711   4.074   7.708   5.048 -0.2137  0.0002 -0.2411
 3573DECAN   C235712   3.943   7.628   5.049 -0.1089 -0.1710 -0.1628
 3573DECAN   C335713   3.943   7.507   5.144 -0.1485 -0.0612 -0.0236
 3573DECAN   C435714   4.066   7.414   5.135 -0.1633 -0.0480 -0.3724
 3573DECAN   C535715   4.094   7.335   5.006  0.3428  0.5004 -0.6009
 3573DECAN   C635716   4.199   7.225   5.031 -0.2512 -0.0372 -0.4530
 3573DECAN   C735717   4.257   7.149   4.911  0.3760 -0.3167  0.0258
 3573DECAN   C835718   4.167   7.052   4.832 -0.4754  0.4841  0.0013
 3573DECAN   C935719   4.113   6.936   4.918  0.1716 -0.3392 -0.6804
 3573DECAN  C1035720   4.218   6.845   4.984  0.3245  0.3597  0.0573
 3574DECAN   C135721   8.625   4.438   5.760  0.5235  0.3469 -0.1076
 3574DECAN   C235722   8.678   4.476   5.899  0.4128  0.9868 -0.2391
 3574DECAN   C335723   8.582   4.492   6.019  0.2189 -0.3166 -0.2109
 3574DECAN   C435724   8.649   4.478   6.157 -0.0306  0.1367 -0.0428
 3574DECAN   C535725   8.562   4.509   6.280  0.1009  0.7540 -0.1047
 3574DECAN   C635726   8.645   4.505   6.409 -0.6285 -0.0386  0.3496
 3574DECAN   C735727   8.684   4.360   6.440 -0.0418  0.1357  0.4353
 3574DECAN   C835728   8.761   4.337   6.572  0.1812  0.0330  0.2878
 3574DECAN   C935729   8.757   4.187   6.607  0.1115 -0.0533 -0.0854
 3574DECAN  C1035730   8.841   4.097   6.515 -0.3994  0.1886 -0.7963
 3575DECAN   C135731   1.102  10.200   8.548 -0.2104 -0.2027 -0.2833
 3575DECAN   C235732   1.229  10.281   8.578 -0.5549  0.1517  0.2331
 3575DECAN   C335733   1.271  10.385   8.472 -0.1738  0.1068  0.3347
 3575DECAN   C435734   1.376  10.486   8.519  0.7696 -0.6546 -0.1112
 3575DECAN   C535735   1.456  10.559   8.409  0.6784 -0.0017  0.2484
 3575DECAN   C635736   1.571  10.651   8.454  0.4455  0.3239  0.1753
 3575DECAN   C735737   1.525  10.792   8.497  0.0248  0.1746  0.2168
 3575DECAN   C835738   1.432  10.803   8.619 -0.3186 -0.7200  0.0421
 3575DECAN   C935739   1.360  10.938   8.617  0.6032 -0.2142  0.3780
 3575DECAN  C1035740   1.461  11.054   8.622  0.0203  0.2999  0.4176
 3576DECAN   C135741   4.120   1.823   9.690  0.1751 -0.2254  0.1836
 3576DECAN   C235742   4.114   1.755   9.552 -0.2931  0.0916  0.0438
 3576DECAN   C335743   4.209   1.634   9.547 -0.4504 -0.0213 -0.2209
 3576DECAN   C435744   4.181   1.541   9.427  0.0986 -0.2670 -0.1622
 3576DECAN   C535745   4.239   1.403   9.460 -0.0478 -0.2865  0.0136
 3576DECAN   C635746   4.246   1.313   9.335 -0.2881 -0.0272 -0.1857
 3576DECAN   C735747   4.339   1.367   9.225 -0.0622  0.6262  0.3162
 3576DECAN   C835748   4.347   1.277   9.100  0.7645  0.4251  0.5115
 3576DECAN   C935749   4.422   1.337   8.980  0.2051  0.0043 -0.0591
 3576DECAN  C1035750   4.402   1.270   8.843 -0.5984  0.1962 -0.0375
 3577DECAN   C135751  10.118   4.693  14.354 -0.1994  0.0873 -0.0973
 3577DECAN   C235752   9.985   4.705  14.277  0.0725  0.1808 -0.5582
 3577DECAN   C335753   9.947   4.583  14.191  0.2658 -0.2857  0.0132
 3577DECAN   C435754  10.054   4.532  14.093  0.1679  0.1833 -0.3436
 3577DECAN   C535755  10.095   4.383  14.099  0.2895  0.2219 -0.1965
 3577DECAN   C635756   9.973   4.296  14.060  0.3912 -0.1587  0.3340
 3577DECAN   C735757   9.856   4.311  14.159  0.4279 -0.0651  0.3629
 3577DECAN   C835758   9.740   4.224  14.107  0.2574  0.1973  0.2962
 3577DECAN   C935759   9.625   4.200  14.206 -0.5158  0.3608 -0.5468
 3577DECAN  C1035760   9.511   4.121  14.139 -0.3808 -0.5936  0.3188
 3578DECAN   C135761   7.777   9.939  11.155 -0.0868  0.3095 -0.2363
 3578DECAN   C235762   7.729  10.078  11.202  0.0699  0.3649 -0.2400
 3578DECAN   C335763   7.841  10.183  11.215  0.2080  0.2345 -0.3684
 3578DECAN   C435764   7.963  10.146  11.300 -0.0454  0.3944  0.0651
 3578DECAN   C535765   8.057  10.268  11.304  0.2057  0.2096 -0.1610
 3578DECAN   C635766   8.177  10.262  11.401  0.7759 -0.4123 -0.8887
 3578DECAN   C735767   8.271  10.383  11.411  0.2151 -0.0106 -0.4079
 3578DECAN   C835768   8.291  10.445  11.272 -0.5460 -0.3954 -0.6896
 3578DECAN   C935769   8.387  10.356  11.191  0.8145  0.3147  0.1094
 3578DECAN  C1035770   8.435  10.428  11.064 -0.1651  0.8052  0.0117
 3579DECAN   C135771   2.628   1.204   5.884 -0.3972  0.8541  0.7696
 3579DECAN   C235772   2.482   1.176   5.843 -0.2068  0.0921  0.5809
 3579DECAN   C335773   2.374   1.264   5.908 -0.0394  0.5054  0.3054
 3579DECAN   C435774   2.230   1.231   5.865  0.0405  0.4652  0.0674
 3579DECAN   C535775   2.128   1.304   5.955  0.1068  0.1419  0.4060
 3579DECAN   C635776   2.145   1.457   5.950  0.6141  0.0661 -0.3542
 3579DECAN   C735777   2.047   1.526   6.046  0.4221 -0.6149 -0.0506
 3579DECAN   C835778   2.105   1.580   6.178 -0.2176  0.0760 -0.0431
 3579DECAN   C935779   1.989   1.663   6.235 -0.0771 -0.0490  0.4292
 3579DECAN  C1035780   1.875   1.566   6.273 -0.4225  0.1845 -0.0113
 3580DECAN   C135781   1.463   0.627  10.884  0.2419  0.4487  0.1909
 3580DECAN   C235782   1.359   0.675  10.988  0.0855  0.2656  0.1185
 3580DECAN   C335783   1.211   0.636  10.973  0.1247  0.1254  0.0958
 3580DECAN   C435784   1.119   0.694  11.081  0.1272  0.5226 -0.1138
 3580DECAN   C535785   1.142   0.846  11.076  0.5543  0.4696  0.2276
 3580DECAN   C635786   1.040   0.916  11.167 -0.0892  0.1475 -0.2432
 3580DECAN   C735787   1.076   1.064  11.189  0.5680  0.0037 -0.3409
 3580DECAN   C835788   1.212   1.094  11.254  0.2457  0.1308  0.2780
 3580DECAN   C935789   1.238   1.244  11.281  0.0761  0.2092  0.0104
 3580DECAN  C1035790   1.391   1.264  11.274  0.0249  0.6222  0.0719
 3581DECAN   C135791   7.109   9.109  13.816 -0.5743  0.2931 -0.0469
 3581DECAN   C235792   7.184   9.210  13.728  0.3332 -0.2134  0.1267
 3581DECAN   C335793   7.127   9.352  13.744  0.3454 -0.1463 -0.4305
 3581DECAN   C435794   7.174   9.432  13.620 -0.1701  0.1878 -0.4129
 3581DECAN   C535795   7.327   9.446  13.607 -0.1227 -0.0632 -0.1393
 3581DECAN   C635796   7.390   9.506  13.733 -0.0057 -0.2700 -0.0999
 3581DECAN   C735797   7.542   9.518  13.713  0.0679 -0.7512  0.1325
 3581DECAN   C835798   7.577   9.630  13.612  0.1494 -0.6982  0.2185
 3581DECAN   C935799   7.718   9.601  13.558  0.2025 -0.4297  0.2128
 3581DECAN  C1035800   7.747   9.454  13.522 -0.2550 -0.4662 -0.0155
 3582DECAN   C135801   1.195   3.207   8.120 -0.4650 -0.0162 -0.1380
 3582DECAN   C235802   1.246   3.086   8.200  0.8783 -0.0285 -0.9855
 3582DECAN   C335803   1.290   2.969   8.110 -0.2181 -0.8009 -0.5326
 3582DECAN   C435804   1.337   2.839   8.177  0.0964 -0.1765  0.4773
 3582DECAN   C535805   1.411   2.751   8.073 -0.6349 -0.6299  0.3351
 3582DECAN   C635806   1.469   2.619   8.127 -0.0977 -0.6941 -0.3836
 3582DECAN   C735807   1.556   2.542   8.026  0.0096 -0.8945 -0.1383
 3582DECAN   C835808   1.675   2.630   7.985 -0.5610  0.1593  0.4261
 3582DECAN   C935809   1.784   2.560   7.902 -0.8087  0.0247  0.2130
 3582DECAN  C1035810   1.752   2.535   7.753  0.0766  0.0823  0.0076
 3583DECAN   C135811  10.039   1.796   5.717 -0.1181  0.3399  0.4906
 3583DECAN   C235812   9.887   1.787   5.697 -0.0039 -0.0565 -0.2246
 3583DECAN   C335813   9.841   1.932   5.674  0.1199  0.0975  0.4854
 3583DECAN   C435814   9.897   2.017   5.559 -0.0426 -0.1261  0.2399
 3583DECAN   C535815   9.811   2.144   5.550 -0.4834 -0.4627 -0.3789
 3583DECAN   C635816   9.679   2.135   5.472 -0.7176 -0.3291 -0.0008
 3583DECAN   C735817   9.616   2.266   5.420  0.0505  0.0165 -0.0726
 3583DECAN   C835818   9.543   2.343   5.531 -0.4247 -0.5537  0.0193
 3583DECAN   C935819   9.652   2.344   5.639 -0.6124 -0.5090  0.2102
 3583DECAN  C1035820   9.631   2.475   5.718  0.2959 -0.2842  0.0896
 3584DECAN   C135821   6.344   7.976  14.364 -0.2605 -0.0545  0.2299
 3584DECAN   C235822   6.485   7.991  14.424  0.0775  0.4400 -0.6732
 3584DECAN   C335823   6.537   7.863  14.492 -0.2433  0.5548 -0.2110
 3584DECAN   C435824   6.681   7.878  14.542 -0.2424 -0.0915 -0.0023
 3584DECAN   C535825   6.688   7.893  14.695  0.1161 -0.3662  0.0100
 3584DECAN   C635826   6.829   7.919  14.753 -0.1157 -0.1953  0.4979
 3584DECAN   C735827   6.924   7.800  14.734  0.0232 -0.0412  0.2343
 3584DECAN   C835828   7.075   7.823  14.753  0.1356 -0.4386 -0.1427
 3584DECAN   C935829   7.156   7.692  14.754  0.3852 -0.2855  0.0118
 3584DECAN  C1035830   7.306   7.718  14.776  0.3036  0.3695 -0.1892
 3585DECAN   C135831   9.473   1.770  14.474  0.0586 -0.7656 -0.8284
 3585DECAN   C235832   9.349   1.698  14.531  0.0929 -0.3199 -0.1892
 3585DECAN   C335833   9.245   1.651  14.428 -0.3313  0.0542  0.0597
 3585DECAN   C435834   9.202   1.765  14.334 -0.9029 -0.1123  0.1168
 3585DECAN   C535835   9.090   1.739  14.232 -0.2677 -0.8611 -0.3913
 3585DECAN   C635836   8.954   1.707  14.297 -0.1950 -0.2532  0.0669
 3585DECAN   C735837   8.851   1.659  14.193 -0.0067 -0.3851 -0.0595
 3585DECAN   C835838   8.725   1.600  14.261 -0.1399  0.3220  0.3069
 3585DECAN   C935839   8.620   1.540  14.166  0.6515 -0.2939 -0.1907
 3585DECAN  C1035840   8.499   1.476  14.236  0.1697  0.1854 -0.5744
 3586DECAN   C135841   6.478   5.196  11.038 -0.3953  0.2524 -0.7287
 3586DECAN   C235842   6.615   5.167  11.104 -0.7142  0.3582 -0.0136
 3586DECAN   C335843   6.600   5.133  11.253  0.7673  0.2410  0.1148
 3586DECAN   C435844   6.726   5.109  11.339  0.6475 -0.8560 -0.0023
 3586DECAN   C535845   6.701   5.097  11.491 -0.0338  0.5744  0.0080
 3586DECAN   C635846   6.838   5.075  11.557  0.0457  0.3256 -0.2365
 3586DECAN   C735847   6.885   4.932  11.527  0.0293  0.1636  0.4864
 3586DECAN   C835848   7.033   4.894  11.546 -0.0180 -0.0153  0.5010
 3586DECAN   C935849   7.095   4.799  11.442 -1.5125  0.2076 -0.6240
 3586DECAN  C1035850   7.096   4.858  11.300 -0.0003  0.0839 -0.6780
 3587DECAN   C135851   8.414   9.623  13.587 -0.4932 -0.8949 -0.0223
 3587DECAN   C235852   8.418   9.646  13.434 -0.1113 -0.3972  0.0602
 3587DECAN   C335853   8.561   9.640  13.378 -0.1498  0.1990 -0.1008
 3587DECAN   C435854   8.661   9.750  13.419 -0.5935  0.4541  0.3017
 3587DECAN   C535855   8.797   9.738  13.349 -0.8893 -0.2616 -0.1671
 3587DECAN   C635856   8.874   9.605  13.360  0.5673  0.6016  0.4443
 3587DECAN   C735857   9.021   9.613  13.316  0.4056  0.2560 -0.1645
 3587DECAN   C835858   9.097   9.479  13.334  0.1219  0.1802  0.4815
 3587DECAN   C935859   9.233   9.484  13.262 -0.1032  0.7538  0.0881
 3587DECAN  C1035860   9.327   9.365  13.283 -0.5379  0.4974  0.6022
 3588DECAN   C135861   7.255   0.307   5.108  0.2941 -0.1864  0.3812
 3588DECAN   C235862   7.199   0.390   5.225  0.1374  0.0199  0.1595
 3588DECAN   C335863   7.311   0.455   5.308  0.2582 -0.1476  0.1284
 3588DECAN   C435864   7.245   0.540   5.418  0.2376  0.3187 -0.2366
 3588DECAN   C535865   7.348   0.588   5.522  0.4264 -0.3022 -0.1293
 3588DECAN   C635866   7.450   0.693   5.476  0.0153  0.1949  0.0755
 3588DECAN   C735867   7.388   0.815   5.404 -0.5479 -0.2796 -0.2465
 3588DECAN   C835868   7.482   0.885   5.305 -0.5907  0.0188 -0.0769
 3588DECAN   C935869   7.422   1.008   5.234  0.2274  0.3670 -0.1803
 3588DECAN  C1035870   7.508   1.077   5.127  0.3916 -0.1185 -0.3691
 3589DECAN   C135871   5.824   9.485  11.706 -0.0992  0.0661  0.3012
 3589DECAN   C235872   5.888   9.622  11.676 -0.0305 -0.1046 -0.3529
 3589DECAN   C335873   5.817   9.743  11.741  0.7149 -0.0230  0.3310
 3589DECAN   C435874   5.895   9.871  11.708  0.4221 -0.0202 -0.3751
 3589DECAN   C535875   5.817  10.000  11.741  0.0601 -0.2588 -0.2942
 3589DECAN   C635876   5.928  10.106  11.754  0.0997 -0.3622  0.2396
 3589DECAN   C735877   5.898  10.228  11.843  0.3219 -0.0791 -0.0697
 3589DECAN   C835878   6.001  10.342  11.840  0.5955 -0.3350 -0.6257
 3589DECAN   C935879   5.951  10.457  11.929  0.4075 -0.6007 -0.3869
 3589DECAN  C1035880   6.051  10.575  11.934  0.5473 -0.7267 -0.2308
 3590DECAN   C135881   3.670   1.324  12.192  0.1233 -0.5472  0.0222
 3590DECAN   C235882   3.606   1.292  12.329 -0.4676 -0.2362 -0.1746
 3590DECAN   C335883   3.617   1.403  12.435  0.2349 -0.1445 -0.3372
 3590DECAN   C435884   3.596   1.375  12.585 -0.0973  0.3050 -0.3020
 3590DECAN   C535885   3.451   1.341  12.623 -0.1110  0.3695 -0.2950
 3590DECAN   C635886   3.374   1.244  12.531  0.1024 -0.4258  0.3474
 3590DECAN   C735887   3.223   1.232  12.558 -0.1303  0.3718 -0.5178
 3590DECAN   C835888   3.129   1.350  12.528 -0.2261  0.3737 -0.2152
 3590DECAN   C935889   2.979   1.322  12.547 -0.1272 -0.2475 -0.3256
 3590DECAN  C1035890   2.896   1.452  12.536  0.7414  0.3295 -0.1044
 3591DECAN   C135891   1.746   0.537  13.211 -0.4387  0.4910  0.1415
 3591DECAN   C235892   1.600   0.522  13.258 -0.5282  0.7097 -0.0652
 3591DECAN   C335893   1.567   0.382  13.312 -0.1301  0.4784 -0.4154
 3591DECAN   C435894   1.418   0.364  13.345  0.1061  0.0608  0.4679
 3591DECAN   C535895   1.373   0.426  13.478  0.5360  0.2193  0.5388
 3591DECAN   C635896   1.417   0.356  13.608  0.4353 -0.7141  0.0741
 3591DECAN   C735897   1.344   0.405  13.735 -0.1388 -0.3478 -0.3931
 3591DECAN   C835898   1.412   0.349  13.861 -0.8418 -0.0895  0.1066
 3591DECAN   C935899   1.441   0.197  13.855  0.0379  0.0958 -0.4400
 3591DECAN  C1035900   1.516   0.137  13.975 -0.3987  0.5871  0.0872
 3592DECAN   C135901   6.036   9.533  10.249  0.1537  0.0138  0.5383
 3592DECAN   C235902   6.007   9.655  10.339  0.4515 -0.1953  0.9195
 3592DECAN   C335903   6.062   9.789  10.289  0.0834 -0.5526 -0.4912
 3592DECAN   C435904   6.018   9.837  10.150  0.0626 -0.3785 -0.4264
 3592DECAN   C535905   6.056   9.979  10.105 -0.2944 -0.0734  0.2358
 3592DECAN   C635906   6.208   9.998  10.091 -0.3600  0.4163  0.1459
 3592DECAN   C735907   6.253  10.117  10.005 -0.2375 -0.3122 -0.8096
 3592DECAN   C835908   6.404  10.128   9.976 -0.0051  0.2800  0.5714
 3592DECAN   C935909   6.439  10.241   9.878 -0.5120  0.0398  0.1055
 3592DECAN  C1035910   6.592  10.257   9.874 -0.5020 -0.2314 -0.7632
 3593DECAN   C135911   8.492   1.115   8.288 -0.3456 -0.2303 -0.5098
 3593DECAN   C235912   8.565   1.108   8.152  0.3555  0.2090 -0.1591
 3593DECAN   C335913   8.713   1.146   8.167  0.4065  0.0330 -0.2153
 3593DECAN   C435914   8.724   1.300   8.169 -0.4897  0.0960  0.6634
 3593DECAN   C535915   8.698   1.360   8.308 -0.2709  0.6161  0.4826
 3593DECAN   C635916   8.772   1.292   8.425 -0.0250 -0.0949 -0.0823
 3593DECAN   C735917   8.741   1.344   8.566  0.6503  0.0871  0.0056
 3593DECAN   C835918   8.741   1.495   8.592 -0.1823  0.1848 -0.5225
 3593DECAN   C935919   8.661   1.527   8.720  0.5187  0.2071 -0.0856
 3593DECAN  C1035920   8.694   1.646   8.812 -0.5538  0.1320  0.4058
 3594DECAN   C135921   7.309   4.392  13.842 -0.3471 -0.0622  0.1408
 3594DECAN   C235922   7.236   4.270  13.901  0.0520 -0.3702  0.0062
 3594DECAN   C335923   7.090   4.297  13.943  0.1560  0.4353 -0.1335
 3594DECAN   C435924   7.008   4.172  13.977  0.3720  0.2903 -0.1402
 3594DECAN   C535925   7.058   4.094  14.100 -0.5404 -0.2203 -0.0828
 3594DECAN   C635926   6.981   3.961  14.119 -0.7285 -0.0088  0.6763
 3594DECAN   C735927   7.056   3.870  14.218  0.3606 -0.1717 -0.2689
 3594DECAN   C835928   6.993   3.730  14.221 -0.1462  0.0531 -0.2850
 3594DECAN   C935929   6.840   3.711  14.227 -0.0929 -0.4723 -0.4931
 3594DECAN  C1035930   6.803   3.572  14.283  0.2700 -0.1439  0.5928
 3595DECAN   C135931   3.474   4.570   7.616  0.8071  0.1893  0.5491
 3595DECAN   C235932   3.505   4.528   7.472 -0.0443  0.6115  0.2339
 3595DECAN   C335933   3.598   4.616   7.387  0.7239 -0.1396  0.2777
 3595DECAN   C435934   3.610   4.587   7.236 -0.1460 -0.2013  0.2131
 3595DECAN   C535935   3.496   4.635   7.144  0.2239  0.4961  0.1121
 3595DECAN   C635936   3.365   4.581   7.203  0.2019  0.3888 -0.0341
 3595DECAN   C735937   3.231   4.604   7.131  0.5273  0.6467 -0.5638
 3595DECAN   C835938   3.214   4.752   7.092 -0.4665  0.6053 -0.3134
 3595DECAN   C935939   3.313   4.818   6.995 -0.1401  1.4901  0.6036
 3595DECAN  C1035940   3.271   4.797   6.848  0.0574 -0.1208  0.7563
 3596DECAN   C135941   5.993   4.201   3.957 -0.9607 -0.4451 -0.0742
 3596DECAN   C235942   5.888   4.275   3.872 -0.1505  0.1358 -0.5776
 3596DECAN   C335943   5.756   4.268   3.951 -0.1873  0.0284 -0.6491
 3596DECAN   C435944   5.751   4.370   4.066 -0.0548 -0.5128 -0.1610
 3596DECAN   C535945   5.608   4.423   4.084  0.1001 -0.0293 -0.3176
 3596DECAN   C635946   5.585   4.519   4.202  0.2104  0.1342 -0.4288
 3596DECAN   C735947   5.436   4.559   4.196  0.2670  0.3391 -0.4852
 3596DECAN   C835948   5.385   4.663   4.297  0.0804  0.1376 -0.3703
 3596DECAN   C935949   5.445   4.641   4.438 -0.3393 -0.1103 -0.2290
 3596DECAN  C1035950   5.428   4.759   4.535 -0.4604  0.0836 -0.4827
 3597DECAN   C135951   5.058   6.569  10.434  0.1550 -0.2911 -0.3694
 3597DECAN   C235952   5.042   6.558  10.587  0.7797  0.2165 -0.2647
 3597DECAN   C335953   5.163   6.558  10.683  0.6456  0.0653 -0.0956
 3597DECAN   C435954   5.152   6.527  10.833  0.4733  0.3048 -0.0591
 3597DECAN   C535955   5.073   6.395  10.840  0.4287  0.3254 -0.1702
 3597DECAN   C635956   5.075   6.335  10.982  0.5528 -0.0978 -0.3491
 3597DECAN   C735957   5.211   6.318  11.052  0.2502  0.0025  0.2668
 3597DECAN   C835958   5.183   6.275  11.197 -0.3733 -0.6238 -0.0310
 3597DECAN   C935959   5.291   6.298  11.304 -0.2591 -0.0467 -0.2650
 3597DECAN  C1035960   5.254   6.262  11.449 -0.3858  0.1246 -0.2562
 3598DECAN   C135961   6.934   2.699  10.354 -0.4592 -0.2148  0.1501
 3598DECAN   C235962   6.882   2.572  10.423  0.2662 -0.6206 -0.0514
 3598DECAN   C335963   6.733   2.544  10.399  0.2226 -0.1922 -0.2887
 3598DECAN   C435964   6.648   2.651  10.470  0.0265 -0.3078 -0.3471
 3598DECAN   C535965   6.501   2.639  10.427 -0.3831  0.3155  0.8321
 3598DECAN   C635966   6.430   2.503  10.444 -0.1323  0.1818  0.8083
 3598DECAN   C735967   6.282   2.507  10.403  0.0453  0.2883  0.1677
 3598DECAN   C835968   6.248   2.536  10.255 -0.1792 -0.3818  0.0808
 3598DECAN   C935969   6.100   2.509  10.222 -0.2238 -0.1027  0.0480
 3598DECAN  C1035970   6.060   2.383  10.143 -0.3020 -0.3673  0.5049
 3599DECAN   C135971   7.209   2.849  12.474  0.0216  0.2846  1.1821
 3599DECAN   C235972   7.285   2.727  12.530  0.5861 -0.0551 -0.2916
 3599DECAN   C335973   7.332   2.631  12.419  0.3960 -0.2249 -0.2253
 3599DECAN   C435974   7.215   2.581  12.334  0.1059  0.1038 -0.0232
 3599DECAN   C535975   7.251   2.509  12.202  0.2331  0.2054 -0.0425
 3599DECAN   C635976   7.328   2.378  12.225  0.5041  0.4087  0.2162
 3599DECAN   C735977   7.329   2.273  12.113  0.3908  0.7044 -0.0646
 3599DECAN   C835978   7.192   2.216  12.073  0.6352  0.3279 -0.3785
 3599DECAN   C935979   7.211   2.145  11.937  0.6799 -0.1452 -0.1264
 3599DECAN  C1035980   7.098   2.044  11.909  0.2615  0.2291  0.1827
 3600DECAN   C135981   6.330   2.091   7.844  0.4097 -0.3434  0.0485
 3600DECAN   C235982   6.388   2.226   7.796 -0.5095  0.0577  0.0394
 3600DECAN   C335983   6.373   2.333   7.906  0.0940  0.3719 -0.1828
 3600DECAN   C435984   6.473   2.319   8.022  0.0523  0.1672 -0.1705
 3600DECAN   C535985   6.460   2.424   8.133  0.0531 -0.2928  0.2707
 3600DECAN   C635986   6.595   2.469   8.193 -0.1120 -0.2201  0.5941
 3600DECAN   C735987   6.658   2.351   8.268  0.8912 -0.1972 -0.1899
 3600DECAN   C835988   6.806   2.380   8.300  0.5599  0.0679  1.1454
 3600DECAN   C935989   6.893   2.273   8.368  0.2409 -0.6249  0.4803
 3600DECAN  C1035990   7.031   2.332   8.405  0.1483 -0.1191  0.0382
 3601DECAN   C135991   2.685   8.596  13.110  0.5903  0.2092 -0.5426
 3601DECAN   C235992   2.730   8.574  13.255 -0.6681  0.3936 -0.1139
 3601DECAN   C335993   2.662   8.655  13.367 -0.0236  0.3876  0.2848
 3601DECAN   C435994   2.509   8.641  13.364  0.0237 -0.0073 -0.4701
 3601DECAN   C535995   2.443   8.713  13.245  0.1668  0.3375 -0.3441
 3601DECAN   C635996   2.291   8.690  13.237  0.0885  0.6632  0.2101
 3601DECAN   C735997   2.217   8.755  13.356  0.0317  0.7242  0.1415
 3601DECAN   C835998   2.255   8.704  13.496 -0.9047  0.2191  0.2243
 3601DECAN   C935999   2.212   8.559  13.524 -0.1260 -0.0921 -0.1579
 3601DECAN  C1036000   2.214   8.524  13.674  0.3538  0.2520 -0.0795
 3602DECAN   C136001   3.358   0.153  11.878 -0.0827  0.0126 -0.0705
 3602DECAN   C236002   3.468   0.099  11.972  0.0993  0.0308 -0.2718
 3602DECAN   C336003   3.502   0.202  12.080 -0.0328 -0.7127  0.4896
 3602DECAN   C436004   3.611   0.148  12.174  0.8754  0.0038 -0.1337
 3602DECAN   C536005   3.577   0.016  12.246 -0.3740  0.0319 -0.6424
 3602DECAN   C636006   3.524  11.153  12.150 -0.3034  0.0418 -0.6920
 3602DECAN   C736007   3.477  11.021  12.214  0.0526  0.3541  0.2277
 3602DECAN   C836008   3.409  10.921  12.118  0.3596 -0.0853  0.4632
 3602DECAN   C936009   3.393  10.785  12.188 -0.0984 -0.2045  0.1263
 3602DECAN  C1036010   3.317  10.797  12.322  0.0591  0.0930  0.1895
 3603DECAN   C136011   7.253   5.927   8.098 -0.0002  0.4982 -0.3060
 3603DECAN   C236012   7.288   5.911   7.949  0.4250 -0.2932 -0.1272
 3603DECAN   C336013   7.399   5.805   7.935  0.7061 -0.0057 -0.0984
 3603DECAN   C436014   7.537   5.858   7.979  0.2759  0.5370  0.6241
 3603DECAN   C536015   7.657   5.766   7.953 -0.1749  0.2378 -0.4462
 3603DECAN   C636016   7.638   5.623   8.006  0.0602  0.3377 -0.0905
 3603DECAN   C736017   7.766   5.538   8.019  0.2681  0.5748 -0.5704
 3603DECAN   C836018   7.832   5.490   7.889  0.4020 -0.5305 -0.1023
 3603DECAN   C936019   7.904   5.355   7.912  0.4136 -0.5690 -0.3603
 3603DECAN  C1036020   7.822   5.240   7.972 -0.7683  0.1403 -0.5656
 3604DECAN   C136021   7.724   2.706  12.260  0.1224  0.1789  0.5450
 3604DECAN   C236022   7.794   2.606  12.353  0.0250 -0.4647 -0.0668
 3604DECAN   C336023   7.735   2.465  12.375 -0.2923 -0.3008  0.1363
 3604DECAN   C436024   7.781   2.390  12.502 -0.6562 -0.3346  0.2481
 3604DECAN   C536025   7.719   2.248  12.505 -0.6755 -0.3356 -0.1013
 3604DECAN   C636026   7.746   2.150  12.620  0.1954 -0.1238 -0.1127
 3604DECAN   C736027   7.893   2.105  12.619  0.2888  0.1880 -0.2215
 3604DECAN   C836028   7.919   1.989  12.716  0.3588  0.7217  0.4111
 3604DECAN   C936029   8.055   1.919  12.700 -0.2112 -0.3046 -0.0897
 3604DECAN  C1036030   8.063   1.813  12.588  0.6144 -0.5244  0.1704
 3605DECAN   C136031   3.549   4.907   9.377  0.3920 -0.4931 -0.0078
 3605DECAN   C236032   3.397   4.934   9.383  0.5292  0.2845  0.0935
 3605DECAN   C336033   3.340   4.905   9.523  0.0492  0.1770 -0.1224
 3605DECAN   C436034   3.331   4.758   9.570  0.3671  0.2084  0.0420
 3605DECAN   C536035   3.251   4.733   9.699 -0.3252 -0.2661 -0.4734
 3605DECAN   C636036   3.308   4.611   9.772  0.1446  0.0139 -0.3700
 3605DECAN   C736037   3.456   4.590   9.810 -0.0086 -0.2766  0.0793
 3605DECAN   C836038   3.493   4.452   9.867 -0.2754 -0.1314  0.6056
 3605DECAN   C936039   3.453   4.323   9.793  0.4932 -0.2246  0.3509
 3605DECAN  C1036040   3.304   4.295   9.817  0.2872  0.0280 -0.6043
 3606DECAN   C136041   8.784   9.946   8.249  0.3135 -0.6883 -0.3859
 3606DECAN   C236042   8.687   9.830   8.220 -0.0770 -0.6926  0.8653
 3606DECAN   C336043   8.761   9.717   8.146  0.0411 -0.2993  0.3827
 3606DECAN   C436044   8.672   9.629   8.056 -0.2105  0.1936  0.1455
 3606DECAN   C536045   8.588   9.527   8.134 -0.5793  0.6973  0.4132
 3606DECAN   C636046   8.451   9.495   8.072 -0.3045 -0.0231  0.1570
 3606DECAN   C736047   8.402   9.624   8.003  0.5066  0.1038 -0.1820
 3606DECAN   C836048   8.251   9.632   7.973  0.4779  0.1092 -0.0332
 3606DECAN   C936049   8.162   9.632   8.099  0.0827 -0.4386 -0.3075
 3606DECAN  C1036050   8.020   9.670   8.055  0.1109  0.0472  0.0119
 3607DECAN   C136051   5.234   4.564   6.899  0.2347 -0.1969  0.0274
 3607DECAN   C236052   5.216   4.648   6.771 -0.1913 -0.2456  0.0528
 3607DECAN   C336053   5.341   4.695   6.694 -0.4582  0.2830 -0.0570
 3607DECAN   C436054   5.300   4.782   6.573  0.0219 -0.1247 -0.5171
 3607DECAN   C536055   5.235   4.917   6.610  0.1444 -0.1425 -0.2336
 3607DECAN   C636056   5.212   5.013   6.492 -0.8353 -0.3139 -0.1910
 3607DECAN   C736057   5.176   5.153   6.544 -0.2277 -0.1847 -0.1050
 3607DECAN   C836058   5.049   5.151   6.631 -0.3782  0.7813 -0.2874
 3607DECAN   C936059   5.052   5.070   6.763 -0.1453  0.5915 -0.4084
 3607DECAN  C1036060   5.135   5.150   6.865  0.1594 -0.2153 -0.0127
 3608DECAN   C136061   6.275   2.308   5.223  0.3130  0.1685  0.2186
 3608DECAN   C236062   6.218   2.339   5.084 -0.0014  0.7216  0.4681
 3608DECAN   C336063   6.329   2.354   4.978 -0.5131  0.0243 -0.1796
 3608DECAN   C436064   6.418   2.229   4.959 -0.9945 -0.2293 -0.7814
 3608DECAN   C536065   6.506   2.232   4.833  0.1658 -0.6318  0.0024
 3608DECAN   C636066   6.630   2.141   4.816  0.2803 -0.4346 -0.2243
 3608DECAN   C736067   6.693   2.136   4.676 -0.0507 -0.2798 -0.3814
 3608DECAN   C836068   6.814   2.041   4.669 -0.1577 -0.4195 -0.3174
 3608DECAN   C936069   6.902   2.047   4.543  0.4779 -0.0349  0.1394
 3608DECAN  C1036070   6.812   2.058   4.418  0.3232  1.3323  0.3532
 3609DECAN   C136071   4.305   0.296   8.688  0.0682  0.0165 -0.3243
 3609DECAN   C236072   4.274   0.205   8.567 -0.1563  0.0702 -0.3068
 3609DECAN   C336073   4.266   0.058   8.614  0.5931  0.0470 -0.2420
 3609DECAN   C436074   4.272  11.205   8.494  0.3767  0.0381 -0.2465
 3609DECAN   C536075   4.168   0.004   8.389  0.2199 -0.0715 -0.1351
 3609DECAN   C636076   4.184  11.201   8.243 -0.4165  0.4508 -0.3774
 3609DECAN   C736077   4.311   0.010   8.174  0.0615  0.1054  0.2236
 3609DECAN   C836078   4.427  11.159   8.209  0.0534  0.1584  0.3978
 3609DECAN   C936079   4.568  11.217   8.188 -0.0416  0.2128 -0.1245
 3609DECAN  C1036080   4.676  11.109   8.166 -0.3874 -0.1957  0.1708
 3610DECAN   C136081   6.841   8.488   5.586 -0.3441 -0.0276 -1.0931
 3610DECAN   C236082   6.753   8.482   5.713  0.4370 -0.5852 -0.5699
 3610DECAN   C336083   6.653   8.365   5.707 -0.9888  0.6146 -0.7286
 3610DECAN   C436084   6.569   8.327   5.830  0.1754 -0.2660 -0.1917
 3610DECAN   C536085   6.447   8.414   5.864  0.1023 -0.3683 -0.1915
 3610DECAN   C636086   6.469   8.566   5.854  0.2381 -0.3982 -0.3230
 3610DECAN   C736087   6.364   8.660   5.913  1.0266  0.0815  0.3364
 3610DECAN   C836088   6.395   8.806   5.875  0.3802  0.2438  0.4186
 3610DECAN   C936089   6.313   8.924   5.933  0.0745  0.2767 -0.0766
 3610DECAN  C1036090   6.345   9.059   5.866 -0.0574  0.3835  0.0777
 3611DECAN   C136091   1.834   3.092   9.515 -0.0971 -0.2161 -0.1472
 3611DECAN   C236092   1.761   3.210   9.448 -0.8124 -0.3176  0.4261
 3611DECAN   C336093   1.740   3.193   9.296  0.1941  0.3340  0.1999
 3611DECAN   C436094   1.676   3.315   9.227  0.3525  0.0702 -0.4182
 3611DECAN   C536095   1.658   3.286   9.077 -0.0664 -0.8940 -0.1887
 3611DECAN   C636096   1.783   3.291   8.987  0.0611 -0.5295  0.0063
 3611DECAN   C736097   1.759   3.272   8.836  0.6884  0.2404 -0.1971
 3611DECAN   C836098   1.755   3.122   8.799 -0.1844  0.0909  0.4735
 3611DECAN   C936099   1.690   3.096   8.662  0.2673  0.3412  0.2111
 3611DECAN  C1036100   1.696   2.944   8.633  0.4217  0.3102  0.4044
 3612DECAN   C136101   8.294  10.987   4.351  0.3872 -0.1553 -0.2823
 3612DECAN   C236102   8.189  10.991   4.238 -0.0700  0.0281  0.1415
 3612DECAN   C336103   8.080  10.883   4.231  0.4221 -0.4752  0.1510
 3612DECAN   C436104   7.967  10.902   4.127  0.3568 -0.9807  0.1275
 3612DECAN   C536105   7.862  10.790   4.132 -0.6401 -0.0661 -0.0970
 3612DECAN   C636106   7.900  10.649   4.083 -0.2418  0.0449 -0.1016
 3612DECAN   C736107   7.806  10.534   4.124  0.1989 -0.2116  0.2071
 3612DECAN   C836108   7.824  10.413   4.030  0.5944  0.1251 -0.1578
 3612DECAN   C936109   7.759  10.432   3.892  0.1937  0.1772  0.0379
 3612DECAN  C1036110   7.746  10.307   3.804  0.2905 -0.2835  0.6694
 3613DECAN   C136111   3.685   7.696  14.913 -0.0612 -0.4561 -0.0457
 3613DECAN   C236112   3.773   7.572  14.889  0.2406 -0.1908 -0.3115
 3613DECAN   C336113   3.921   7.583  14.849  0.0541  0.0742 -0.9422
 3613DECAN   C436114   3.992   7.448  14.822  0.1842 -0.0892  0.2021
 3613DECAN   C536115   4.016   7.367  14.951  0.1459 -0.2678  0.0957
 3613DECAN   C636116   4.052   7.218  14.932  0.5241 -0.1834  0.1459
 3613DECAN   C736117   4.020   7.136  15.059 -0.5278  0.2205  0.1552
 3613DECAN   C836118   4.072   6.991  15.054 -0.1794  0.3447  0.1751
 3613DECAN   C936119   4.225   6.977  15.071 -0.2185 -0.1677  0.1207
 3613DECAN  C1036120   4.299   7.089  14.995  0.1294 -0.2204  0.3776
 3614DECAN   C136121   4.493   7.016   8.619  0.2622 -0.2104  0.0924
 3614DECAN   C236122   4.390   6.914   8.671 -0.4835  0.1061 -0.7382
 3614DECAN   C336123   4.437   6.816   8.779 -0.2208  0.5398 -0.4559
 3614DECAN   C436124   4.568   6.737   8.759 -0.3849  0.1291  0.0632
 3614DECAN   C536125   4.635   6.694   8.891  0.0857  0.4066 -0.0845
 3614DECAN   C636126   4.687   6.813   8.974 -0.2315  0.2331  0.3608
 3614DECAN   C736127   4.749   6.757   9.104 -0.4648 -0.6285  0.1081
 3614DECAN   C836128   4.743   6.866   9.213  0.8651 -0.2866 -0.1439
 3614DECAN   C936129   4.697   6.807   9.348 -0.4517 -0.1815 -0.5346
 3614DECAN  C1036130   4.776   6.681   9.387 -0.2434  0.3398  0.7756
 3615DECAN   C136131   9.756   0.836   9.132  0.5584 -0.0577  0.4015
 3615DECAN   C236132   9.619   0.900   9.161  0.4851 -0.0577  0.0574
 3615DECAN   C336133   9.587   1.043   9.113  0.1015 -0.1552  0.0178
 3615DECAN   C436134   9.474   1.121   9.184 -0.1246 -0.2417 -0.2461
 3615DECAN   C536135   9.428   1.245   9.105  0.2650 -0.0370 -0.1548
 3615DECAN   C636136   9.333   1.337   9.183  0.8360  0.2027  0.2616
 3615DECAN   C736137   9.263   1.432   9.084 -0.2689 -0.2907  0.5524
 3615DECAN   C836138   9.159   1.524   9.150  0.2152  0.4291  0.3272
 3615DECAN   C936139   9.079   1.618   9.057 -0.1319 -0.0815  0.1046
 3615DECAN  C1036140   8.959   1.697   9.113  0.5439  0.4209  0.8819
 3616DECAN   C136141   6.080   8.924   4.284 -0.1857  0.4295  0.0466
 3616DECAN   C236142   6.125   8.781   4.321 -0.5395  0.3048 -0.0010
 3616DECAN   C336143   6.058   8.747   4.455  0.6827  0.0557  0.5535
 3616DECAN   C436144   6.042   8.597   4.486  0.2121  0.0599  0.3201
 3616DECAN   C536145   6.163   8.517   4.436 -0.0585  0.0602 -0.3476
 3616DECAN   C636146   6.159   8.369   4.478 -0.6886 -0.1548 -1.1350
 3616DECAN   C736147   6.259   8.278   4.404  0.2586 -0.2144  0.1775
 3616DECAN   C836148   6.224   8.129   4.406 -0.1896 -0.1114 -0.0111
 3616DECAN   C936149   6.235   8.068   4.547  0.7008  0.0440 -0.0088
 3616DECAN  C1036150   6.163   8.152   4.654  0.7000 -0.2201  0.1999
 3617DECAN   C136151   9.464  10.176  10.186 -0.1704  0.1382 -0.7842
 3617DECAN   C236152   9.314  10.176  10.150 -0.2166  0.6880 -0.6121
 3617DECAN   C336153   9.204  10.164  10.257  0.4117  0.2347 -0.0054
 3617DECAN   C436154   9.166  10.027  10.316  0.2746  0.0632 -0.4829
 3617DECAN   C536155   9.060  10.054  10.424  0.2014 -0.1721 -0.4977
 3617DECAN   C636156   8.962   9.940  10.458 -0.1581  0.1412 -0.4742
 3617DECAN   C736157   8.865   9.972  10.573  0.2846  0.1779 -0.1036
 3617DECAN   C836158   8.946  10.014  10.696  0.2674  0.2087 -0.1024
 3617DECAN   C936159   8.861  10.055  10.818  0.1686 -0.1425 -0.0513
 3617DECAN  C1036160   8.956  10.106  10.929  0.0590  0.2295 -0.1279
 3618DECAN   C136161   6.982   9.008   8.962  0.3619  0.0907 -0.4456
 3618DECAN   C236162   7.069   9.110   9.037  0.0986 -0.1806  0.2391
 3618DECAN   C336163   7.145   9.053   9.158 -0.2986 -0.6911  0.2501
 3618DECAN   C436164   7.211   9.166   9.239 -0.2229 -0.2396 -0.4339
 3618DECAN   C536165   7.275   9.117   9.370 -0.5133 -0.2940 -0.3097
 3618DECAN   C636166   7.182   9.073   9.484  0.2299  0.2269  0.5085
 3618DECAN   C736167   7.247   8.994   9.600 -0.1012 -0.9704 -0.1063
 3618DECAN   C836168   7.157   8.975   9.723 -0.0645  0.2253  0.1174
 3618DECAN   C936169   7.238   8.912   9.837 -0.4202 -0.1606  0.1581
 3618DECAN  C1036170   7.145   8.892   9.958 -0.1324  0.3340  0.4655
 3619DECAN   C136171   3.809   8.968   6.238 -0.5588  0.1093 -0.1713
 3619DECAN   C236172   3.658   8.986   6.212 -0.6639 -0.0450  0.3189
 3619DECAN   C336173   3.607   8.959   6.070 -0.2631  0.1342  0.1397
 3619DECAN   C436174   3.620   9.053   5.948 -0.2044  0.0379  0.0715
 3619DECAN   C536175   3.535   9.176   5.984  0.1748  0.4758 -0.5185
 3619DECAN   C636176   3.473   9.228   5.853 -0.3083  0.2115 -0.3952
 3619DECAN   C736177   3.442   9.378   5.854 -0.1762  0.2359  0.1513
 3619DECAN   C836178   3.573   9.456   5.871 -0.3138  0.4707  0.1576
 3619DECAN   C936179   3.663   9.474   5.747  0.1035 -0.0510  0.3764
 3619DECAN  C1036180   3.700   9.341   5.680  0.3011  0.1111  0.1595
 3620DECAN   C136181   6.295   0.490  13.649  0.1538 -0.6396 -0.4655
 3620DECAN   C236182   6.327   0.386  13.757 -0.0811  0.0527  0.2826
 3620DECAN   C336183   6.442   0.435  13.847  0.3371  0.0500 -0.2415
 3620DECAN   C436184   6.487   0.332  13.953  0.0776 -0.1483 -0.3226
 3620DECAN   C536185   6.609   0.368  14.040  0.0514  0.0901 -0.3831
 3620DECAN   C636186   6.588   0.502  14.112 -0.4975 -0.1954  0.0017
 3620DECAN   C736187   6.704   0.544  14.204 -0.3006  0.2076 -0.4280
 3620DECAN   C836188   6.725   0.690  14.250  0.0524 -0.0434  0.2265
 3620DECAN   C936189   6.859   0.695  14.325  0.1737  0.1458 -0.0012
 3620DECAN  C1036190   6.883   0.833  14.390  0.0525  0.2169 -0.1068
 3621DECAN   C136191   9.707  10.598  13.895  0.2295  0.0028  0.1645
 3621DECAN   C236192   9.722  10.447  13.872  0.3149 -0.0220  0.3769
 3621DECAN   C336193   9.587  10.389  13.825  0.0972  0.3398  0.5612
 3621DECAN   C436194   9.606  10.237  13.831 -0.4880  0.2547  0.3150
 3621DECAN   C536195   9.645  10.164  13.961 -0.2240  0.1095  0.1574
 3621DECAN   C636196   9.664  10.013  13.937  0.2129  0.1632  0.1644
 3621DECAN   C736197   9.736   9.926  14.042  0.0137  0.3010  0.4176
 3621DECAN   C836198   9.746   9.782  13.988 -0.4542  0.4476 -0.0683
 3621DECAN   C936199   9.810   9.690  14.094  0.0269  0.0807 -0.6691
 3621DECAN  C1036200   9.902   9.584  14.030  0.2744  0.0272 -0.2301
 3622DECAN   C136201   7.954  10.597   9.287  0.0961  0.0275 -0.0615
 3622DECAN   C236202   7.967  10.546   9.142 -0.0259  0.8533 -0.3692
 3622DECAN   C336203   8.096  10.534   9.060 -0.2029  0.1681 -0.5549
 3622DECAN   C436204   8.063  10.472   8.923 -0.5849  0.1679 -0.4635
 3622DECAN   C536205   8.198  10.453   8.851 -0.3428 -0.3221  0.1116
 3622DECAN   C636206   8.190  10.459   8.697 -0.5136  1.2869  0.1686
 3622DECAN   C736207   8.098  10.352   8.635  0.7366  0.4357 -0.2474
 3622DECAN   C836208   8.087  10.344   8.481  0.3646 -0.2536 -0.1892
 3622DECAN   C936209   8.026  10.212   8.431  0.4828 -0.2804 -0.2688
 3622DECAN  C1036210   7.953  10.215   8.296 -0.3680  0.5928  0.1962
 3623DECAN   C136211   7.240   5.817   9.964 -0.3052  0.6735  0.0711
 3623DECAN   C236212   7.261   5.913   9.845  0.4941  0.2508 -0.1394
 3623DECAN   C336213   7.295   6.057   9.890 -0.0190  0.5458 -0.6800
 3623DECAN   C436214   7.435   6.062   9.953 -0.1518  0.6265 -0.3886
 3623DECAN   C536215   7.541   6.020   9.849 -0.1744 -0.4398  0.0097
 3623DECAN   C636216   7.542   6.104   9.720  0.5299  0.2760  0.4750
 3623DECAN   C736217   7.637   6.045   9.613  0.0547 -0.1099  0.2631
 3623DECAN   C836218   7.614   6.106   9.474  0.6520  0.0629  0.2404
 3623DECAN   C936219   7.697   6.045   9.358  0.5400  0.4264 -0.0314
 3623DECAN  C1036220   7.680   6.123   9.226 -0.1451 -0.3568 -0.4159
 3624DECAN   C136221  10.305   5.870  12.682  0.1134  0.1317 -0.4664
 3624DECAN   C236222  10.213   5.961  12.764  0.5410  0.1354  0.0171
 3624DECAN   C336223  10.077   5.901  12.806  0.5544  0.2727  0.2618
 3624DECAN   C436224   9.977   6.008  12.853 -0.0616  0.0066 -0.4261
 3624DECAN   C536225   9.916   6.101  12.746  0.1432  0.4731 -0.1424
 3624DECAN   C636226   9.781   6.168  12.777  0.0278  0.0828  0.2091
 3624DECAN   C736227   9.694   6.197  12.653 -0.2798 -0.5843  0.2603
 3624DECAN   C836228   9.557   6.254  12.693  0.0156  0.4197 -0.1120
 3624DECAN   C936229   9.461   6.261  12.573 -0.5380  0.3805  0.3265
 3624DECAN  C1036230   9.381   6.130  12.561 -0.5349  0.3595  0.5291
 3625DECAN   C136231   2.689   5.361   5.695 -0.6314 -0.7016  0.6178
 3625DECAN   C236232   2.688   5.335   5.543 -0.1004 -0.5985  0.5967
 3625DECAN   C336233   2.563   5.385   5.468  0.3967  0.0397  0.1807
 3625DECAN   C436234   2.529   5.526   5.517 -0.1736 -0.0888  0.1549
 3625DECAN   C536235   2.390   5.583   5.482 -0.3867 -0.6111  0.1418
 3625DECAN   C636236   2.360   5.572   5.331 -0.0992  0.3364  0.0068
 3625DECAN   C736237   2.234   5.649   5.287 -0.0773  0.5530  0.3191
 3625DECAN   C836238   2.111   5.585   5.355 -0.0902  0.1318 -0.0918
 3625DECAN   C936239   2.129   5.557   5.506  0.4479  0.0600 -0.1672
 3625DECAN  C1036240   2.016   5.477   5.572  0.6350 -0.0552  0.0147
 3626DECAN   C136241   3.497   9.021   5.061  0.7401 -0.2064  0.1238
 3626DECAN   C236242   3.509   8.943   4.929  0.2376  0.3012 -0.2285
 3626DECAN   C336243   3.545   8.794   4.949 -0.3274  0.1861 -0.0511
 3626DECAN   C436244   3.658   8.781   5.054 -0.3313  0.1469 -0.0518
 3626DECAN   C536245   3.601   8.805   5.195  0.0784  0.7607  0.0121
 3626DECAN   C636246   3.708   8.806   5.306  0.2404 -0.2560 -0.1262
 3626DECAN   C736247   3.804   8.925   5.320 -0.2990  0.1817 -0.1093
 3626DECAN   C836248   3.854   8.990   5.190  0.3804 -0.8808 -0.3931
 3626DECAN   C936249   3.942   9.116   5.204 -0.8883  0.0741 -0.8045
 3626DECAN  C1036250   3.882   9.207   5.313 -0.4113 -0.3177 -0.2073
 3627DECAN   C136251   9.659   9.829  10.483  0.0635  0.3303 -0.1035
 3627DECAN   C236252   9.512   9.785  10.485  0.0997  0.2279  0.3886
 3627DECAN   C336253   9.494   9.641  10.433  0.0458  0.2650  0.3003
 3627DECAN   C436254   9.353   9.599  10.386  0.3645  0.0429 -0.4566
 3627DECAN   C536255   9.331   9.447  10.373 -0.3444  0.1558 -0.6119
 3627DECAN   C636256   9.192   9.399  10.418  0.0086  0.1141  0.4688
 3627DECAN   C736257   9.168   9.372  10.568 -0.0535  0.0925  0.4552
 3627DECAN   C836258   9.085   9.478  10.643 -0.4502  0.2049 -0.1376
 3627DECAN   C936259   9.063   9.454  10.793  1.1468  0.2216  0.1234
 3627DECAN  C1036260   9.004   9.585  10.850 -0.5491 -0.6996  0.5653
 3628DECAN   C136261   3.957   3.733  14.575 -0.0534  0.2624 -0.2035
 3628DECAN   C236262   4.024   3.853  14.645  0.4676 -0.3170  0.3052
 3628DECAN   C336263   4.173   3.870  14.610  0.2696  0.3211 -0.2574
 3628DECAN   C436264   4.223   4.000  14.676 -0.0466  0.2118  0.2003
 3628DECAN   C536265   4.370   4.040  14.655  0.1688 -0.4140  0.5057
 3628DECAN   C636266   4.404   4.185  14.694  0.2986 -0.4007  0.3406
 3628DECAN   C736267   4.551   4.219  14.662  0.1231 -0.1062 -0.1593
 3628DECAN   C836268   4.592   4.368  14.660 -0.0786 -0.0564 -0.7763
 3628DECAN   C936269   4.728   4.409  14.719 -0.2124  0.2390 -0.6720
 3628DECAN  C1036270   4.752   4.560  14.709  0.1191  0.1749 -0.8369
 3629DECAN   C136271   4.128   1.922   4.839 -0.2243  0.8208 -0.3714
 3629DECAN   C236272   4.069   2.015   4.946  0.0042  0.2356  0.2689
 3629DECAN   C336273   4.118   2.161   4.935  0.0274  0.1999 -0.1141
 3629DECAN   C436274   4.039   2.252   5.031 -0.0748 -0.2271  0.2139
 3629DECAN   C536275   4.091   2.396   5.053 -0.1281 -0.0693 -0.6608
 3629DECAN   C636276   4.208   2.406   5.153 -0.3882  0.0876 -0.3711
 3629DECAN   C736277   4.291   2.536   5.158  0.4201 -0.4209 -0.3503
 3629DECAN   C836278   4.412   2.530   5.252 -0.1182 -0.3048  0.3587
 3629DECAN   C936279   4.472   2.666   5.293 -0.3447  0.0601 -0.4929
 3629DECAN  C1036280   4.535   2.690   5.432 -0.9794  0.2141 -0.2300
  12.00300  11.24400  15.28400
